 vasp.6.4.3 19Mar24 (build Jun 01 2024 10:57:29) complex                        
  
 executed on             LinuxIFC date 2026.01.15  22:06:03
 running   32 mpi-ranks, on    1 nodes
 distrk:  each k-point on   32 cores,    1 groups
 distr:  one band on NCORE=   1 cores,   32 groups


--------------------------------------------------------------------------------------------------------


 INCAR:
   SYSTEM = C60 BEC example8 L-14 mx
   ENCUT = 520
   PREC = Accurate
   EDIFF = 1E-8
   NELM = 200
   ALGO = Normal
   LREAL = .FALSE.
   ADDGRID = .TRUE.
   LASPH = .TRUE.
   ISMEAR = 0
   SIGMA = 0.05
   NSW = 0
   IBRION = -1
   ISYM = 0
   LCALCEPS = .TRUE.
   LPEAD = .TRUE.
   LWAVE = .FALSE.
   LCHARG = .FALSE.
   EFIELD_PEAD = -0.1414 0.0100 0.0100

 POTCAR:    PAW_PBE C 08Apr2002                   
 -----------------------------------------------------------------------------
|                                                                             |
|           W    W    AA    RRRRR   N    N  II  N    N   GGGG   !!!           |
|           W    W   A  A   R    R  NN   N  II  NN   N  G    G  !!!           |
|           W    W  A    A  R    R  N N  N  II  N N  N  G       !!!           |
|           W WW W  AAAAAA  RRRRR   N  N N  II  N  N N  G  GGG   !            |
|           WW  WW  A    A  R   R   N   NN  II  N   NN  G    G                |
|           W    W  A    A  R    R  N    N  II  N    N   GGGG   !!!           |
|                                                                             |
|     For optimal performance we recommend to set                             |
|       NCORE = 2 up to number-of-cores-per-socket                            |
|     NCORE specifies how many cores store one orbital (NPAR=cpu/NCORE).      |
|     This setting can greatly improve the performance of VASP for DFT.       |
|     The default, NCORE=1 might be grossly inefficient on modern             |
|     multi-core architectures or massively parallel machines. Do your        |
|     own testing! More info at https://www.vasp.at/wiki/index.php/NCORE      |
|     Unfortunately you need to use the default for GW and RPA                |
|     calculations (for HF NCORE is supported but not extensively tested      |
|     yet).                                                                   |
|                                                                             |
 -----------------------------------------------------------------------------

 POTCAR:    PAW_PBE C 08Apr2002                   
   VRHFIN =C: s2p2                                                                                  
   LEXCH  = PE                                                                                      
   EATOM  =   147.1560 eV,   10.8157 Ry                                                             
                                                                                                    
   TITEL  = PAW_PBE C 08Apr2002                                                                     
   LULTRA =        F    use ultrasoft PP ?                                                          
   IUNSCR =        1    unscreen: 0-lin 1-nonlin 2-no                                               
   RPACOR =    1.200    partial core radius                                                         
   POMASS =   12.011; ZVAL   =    4.000    mass and valenz                                          
   RCORE  =    1.500    outmost cutoff radius                                                       
   RWIGS  =    1.630; RWIGS  =    0.863    wigner-seitz radius (au A)                               
   ENMAX  =  400.000; ENMIN  =  300.000 eV                                                          
   ICORE  =        2    local potential                                                             
   LCOR   =        T    correct aug charges                                                         
   LPAW   =        T    paw PP                                                                      
   EAUG   =  644.873                                                                                
   DEXC   =    0.000                                                                                
   RMAX   =    1.529    core radius for proj-oper                                                   
   RAUG   =    1.300    factor for augmentation sphere                                              
   RDEP   =    1.501    radius for radial grids                                                     
   RDEPT  =    1.300    core radius for aug-charge                                                  
                                                                                                    
   Atomic configuration                                                                             
    4 entries                                                                                       
     n  l   j            E        occ.                                                              
     1  0  0.50      -273.3789   2.0000                                                             
     2  0  0.50       -13.7508   2.0000                                                             
     2  1  0.50        -5.2854   2.0000                                                             
     3  2  1.50        -5.4423   0.0000                                                             
   Description                                                                                      
     l       E           TYP  RCUT    TYP  RCUT                                                     
     0    -13.7508458     23  1.200                                                                 
     0     -8.2022199     23  1.200                                                                 
     1     -5.2854383     23  1.500                                                                 
     1     34.0145650     23  1.500                                                                 
     2     -5.4423304      7  1.500                                                                 
  local pseudopotential read in
  partial core-charges read in
  partial kinetic energy density read in
  atomic valenz-charges read in
  non local Contribution for L=           0  read in
    real space projection operators read in
  non local Contribution for L=           0  read in
    real space projection operators read in
  non local Contribution for L=           1  read in
    real space projection operators read in
  non local Contribution for L=           1  read in
    real space projection operators read in
    PAW grid and wavefunctions read in
 
   number of l-projection  operators is LMAX  =           4
   number of lm-projection operators is LMMAX =           8
 
 -----------------------------------------------------------------------------
|                                                                             |
|               ----> ADVICE to this user running VASP <----                  |
|                                                                             |
|     You have a (more or less) 'large supercell' and for larger cells it     |
|     might be more efficient to use real-space projection operators.         |
|     Therefore, try LREAL= Auto in the INCAR file.                           |
|     Mind: For very accurate calculation, you might also keep the            |
|     reciprocal projection scheme (i.e. LREAL=.FALSE.).                      |
|                                                                             |
 -----------------------------------------------------------------------------

  PAW_PBE C 08Apr2002                   :
 energy of atom  1       EATOM= -147.1560
 kinetic energy error for atom=    0.0071 (will be added to EATOM!!)
 
 
 POSCAR: C60 | isolated, centered, L=14.0 Å, vac
  positions in direct lattice
  No initial velocities read in


 exchange-correlation table for PE
   RHO(1)=    0.500       N(1)  =     2000
   RHO(2)=  100.500       N(2)  =     4000
 


--------------------------------------------------------------------------------------------------------


 ion  position               nearest neighbor table
   1  0.649  0.404  0.318-   6 1.40   3 1.45   2 1.45
   2  0.600  0.319  0.353-   7 1.40   4 1.45   1 1.45
   3  0.581  0.460  0.263-   8 1.40   5 1.45   1 1.45
   4  0.502  0.323  0.318-   9 1.40   5 1.45   2 1.45
   5  0.490  0.410  0.263-  10 1.40   3 1.45   4 1.45
   6  0.716  0.450  0.376-   1 1.40  11 1.45  13 1.45
   7  0.620  0.283  0.444-   2 1.40  12 1.45  15 1.45
   8  0.583  0.559  0.268-   3 1.40  14 1.45  17 1.45
   9  0.427  0.290  0.377-   4 1.40  19 1.45  16 1.45
  10  0.405  0.461  0.268-   5 1.40  20 1.45  18 1.45
  11  0.737  0.413  0.471-  12 1.40   6 1.45  21 1.45
  12  0.689  0.331  0.504-  11 1.40   7 1.45  23 1.45
  13  0.718  0.553  0.381-  14 1.40  22 1.45   6 1.45
  14  0.653  0.607  0.328-  13 1.40   8 1.45  25 1.45
  15  0.542  0.250  0.504-  16 1.40  24 1.45   7 1.45
  16  0.448  0.253  0.471-  15 1.40  27 1.45   9 1.45
  17  0.494  0.613  0.273-  18 1.40  26 1.45   8 1.45
  18  0.407  0.565  0.273-  17 1.40  10 1.45  29 1.45
  19  0.339  0.344  0.382-  20 1.40  28 1.45   9 1.45
  20  0.328  0.428  0.328-  19 1.40  10 1.45  30 1.45
  21  0.751  0.493  0.535-  31 1.40  22 1.45  11 1.45
  22  0.740  0.580  0.479-  33 1.40  21 1.45  13 1.45
  23  0.655  0.327  0.602-  32 1.40  12 1.45  24 1.45
  24  0.564  0.277  0.602-  35 1.40  15 1.45  23 1.45
  25  0.607  0.690  0.371-  34 1.40  26 1.45  14 1.45
  26  0.509  0.694  0.336-  37 1.40  25 1.45  17 1.45
  27  0.372  0.284  0.535-  36 1.40  28 1.45  16 1.45
  28  0.304  0.340  0.480-  39 1.40  27 1.45  19 1.45
  29  0.331  0.595  0.337-  38 1.40  30 1.45  18 1.45
  30  0.282  0.511  0.371-  40 1.40  20 1.45  29 1.45
  31  0.718  0.489  0.629-  21 1.40  41 1.45  32 1.45
  32  0.669  0.405  0.663-  23 1.40  31 1.45  43 1.45
  33  0.696  0.660  0.520-  22 1.40  34 1.45  42 1.45
  34  0.628  0.716  0.465-  25 1.40  33 1.45  45 1.45
  35  0.491  0.306  0.663-  24 1.40  44 1.45  36 1.45
  36  0.393  0.310  0.629-  27 1.40  35 1.45  47 1.45
  37  0.436  0.723  0.398-  26 1.40  46 1.45  38 1.45
  38  0.345  0.673  0.398-  29 1.40  49 1.45  37 1.45
  39  0.260  0.420  0.521-  28 1.40  48 1.45  40 1.45
  40  0.249  0.507  0.465-  30 1.40  39 1.45  50 1.45
  41  0.672  0.572  0.671-  42 1.40  51 1.45  31 1.45
  42  0.661  0.656  0.618-  41 1.40  33 1.45  52 1.45
  43  0.593  0.435  0.727-  44 1.40  51 1.45  32 1.45
  44  0.506  0.387  0.727-  43 1.40  35 1.45  53 1.45
  45  0.552  0.747  0.528-  46 1.40  52 1.45  34 1.45
  46  0.458  0.750  0.495-  45 1.40  37 1.45  54 1.45
  47  0.347  0.393  0.672-  48 1.40  53 1.45  36 1.45
  48  0.282  0.447  0.618-  47 1.40  39 1.45  55 1.45
  49  0.311  0.669  0.496-  50 1.40  54 1.45  38 1.45
  50  0.264  0.587  0.529-  49 1.40  55 1.45  40 1.45
  51  0.595  0.539  0.732-  56 1.40  41 1.45  43 1.45
  52  0.573  0.710  0.623-  57 1.40  45 1.45  42 1.45
  53  0.417  0.440  0.732-  58 1.40  47 1.45  44 1.45
  54  0.380  0.717  0.556-  59 1.40  49 1.45  46 1.45
  55  0.284  0.550  0.623-  60 1.40  50 1.45  48 1.45
  56  0.510  0.590  0.737-  51 1.40  58 1.45  57 1.45
  57  0.498  0.677  0.681-  52 1.40  56 1.45  59 1.45
  58  0.419  0.540  0.737-  53 1.40  56 1.45  60 1.45
  59  0.400  0.681  0.647-  54 1.40  60 1.45  57 1.45
  60  0.351  0.596  0.681-  55 1.40  59 1.45  58 1.45
 

IMPORTANT INFORMATION: All symmetrisations will be switched off!
NOSYMM: (Re-)initialisation of all symmetry stuff for point group C_1.


----------------------------------------------------------------------------------------

                                     Primitive cell                                     

  volume of cell :    2744.0000

  direct lattice vectors                    reciprocal lattice vectors
     9.899494937 -9.899494937  0.000000000     0.050507627 -0.050507627  0.000000000
     9.899494937  9.899494937  0.000000000     0.050507627  0.050507627  0.000000000
     0.000000000  0.000000000 14.000000000     0.000000000  0.000000000  0.071428571

  length of vectors
    14.000000000 14.000000000 14.000000000     0.071428571  0.071428571  0.071428571

  position of ions in fractional coordinates (direct lattice)
     0.648846297  0.403755720  0.318229930
     0.599759418  0.319006451  0.352579141
     0.581214867  0.459715760  0.262871689
     0.501827740  0.322583737  0.318406897
     0.490371812  0.409563572  0.262970726
     0.715964597  0.449627468  0.376350615
     0.619565770  0.283322667  0.443779792
     0.583194916  0.559495909  0.267735791
     0.427355172  0.290316628  0.376697176
     0.404899942  0.461093436  0.267910517
     0.736509976  0.412540453  0.471069816
     0.689259118  0.330929882  0.504151426
     0.717982347  0.553271002  0.381413898
     0.652838375  0.607124448  0.328144300
     0.542222218  0.249788057  0.504319797
     0.447932353  0.253215088  0.471412596
     0.494426259  0.613005467  0.272807192
     0.406947807  0.564722693  0.272884160
     0.338607034  0.343865235  0.381823353
     0.327588766  0.427626345  0.328475588
     0.751277685  0.493267774  0.534622278
     0.739806195  0.580250170  0.479211055
     0.654943088  0.326882400  0.602014685
     0.564075845  0.276717303  0.602132414
     0.607107183  0.690086333  0.370530783
     0.509209007  0.693714954  0.336330545
     0.371883226  0.283823690  0.535054914
     0.304292831  0.339800467  0.479676966
     0.330872211  0.595297165  0.336516754
     0.281823266  0.510539506  0.370880212
     0.718223068  0.489376590  0.628831996
     0.669147385  0.404623268  0.663155726
     0.695735641  0.660095243  0.520050836
     0.628153146  0.716076396  0.464676993
     0.490831425  0.306175080  0.663399729
     0.392931172  0.309821376  0.629194218
     0.435960504  0.723172250  0.397584165
     0.345090119  0.673026114  0.397680484
     0.260216127  0.419649363  0.520504744
     0.248758320  0.506635557  0.465081746
     0.672450297  0.572297374  0.671242330
     0.661428159  0.656061342  0.617904155
     0.593064847  0.435204741  0.726764416
     0.505601742  0.386912206  0.726880734
     0.552094808  0.746695097  0.528303146
     0.457806378  0.750119696  0.495394333
     0.347193934  0.392786018  0.671569253
     0.282060326  0.446651226  0.618293655
     0.310759811  0.668992112  0.495538292
     0.263505641  0.587378694  0.528614584
     0.595121498  0.538831695  0.731775987
     0.572668742  0.709600964  0.623010104
     0.416839288  0.440442638  0.731950245
     0.380444356  0.716610770  0.555917352
     0.284072451  0.550299078  0.623332590
     0.509647233  0.590366368  0.736716258
     0.498184532  0.677346679  0.681286888
     0.418804147  0.540219676  0.736795970
     0.400257455  0.680926465  0.647101716
     0.351180562  0.596181860  0.681438200

  ion indices of the primitive-cell ions
   primitive index   ion index
                 1           1
                 2           2
                 3           3
                 4           4
                 5           5
                 6           6
                 7           7
                 8           8
                 9           9
                10          10
                11          11
                12          12
                13          13
                14          14
                15          15
                16          16
                17          17
                18          18
                19          19
                20          20
                21          21
                22          22
                23          23
                24          24
                25          25
                26          26
                27          27
                28          28
                29          29
                30          30
                31          31
                32          32
                33          33
                34          34
                35          35
                36          36
                37          37
                38          38
                39          39
                40          40
                41          41
                42          42
                43          43
                44          44
                45          45
                46          46
                47          47
                48          48
                49          49
                50          50
                51          51
                52          52
                53          53
                54          54
                55          55
                56          56
                57          57
                58          58
                59          59
                60          60

----------------------------------------------------------------------------------------

 
 
 KPOINTS: Automatic mesh                          

Automatic generation of k-mesh.
 Grid dimensions read from file:
 generate k-points for:    1    1    1

 Generating k-lattice:

  Cartesian coordinates                     Fractional coordinates (reciprocal lattice)
     0.050507627 -0.050507627  0.000000000     1.000000000  0.000000000  0.000000000
     0.050507627  0.050507627  0.000000000     0.000000000  1.000000000  0.000000000
     0.000000000  0.000000000  0.071428571     0.000000000  0.000000000  1.000000000

  Length of vectors
     0.071428571  0.071428571  0.071428571

  Shift w.r.t. Gamma in fractional coordinates (k-lattice)
     0.000000000  0.000000000  0.000000000

 
 Subroutine IBZKPT returns following result:
 ===========================================
 
 Found      1 irreducible k-points:
 
 Following reciprocal coordinates:
            Coordinates               Weight
  0.000000  0.000000  0.000000      1.000000
 
 Following cartesian coordinates:
            Coordinates               Weight
  0.000000  0.000000  0.000000      1.000000
 
 
 Subroutine IBZKPT_HF returns following result:
 ==============================================
 
 Found      1 k-points in 1st BZ
 the following      1 k-points will be used (e.g. in the exchange kernel)
 Following reciprocal coordinates:   # in IRBZ
  0.000000  0.000000  0.000000    1.00000000   1 t-inv F


--------------------------------------------------------------------------------------------------------




 Dimension of arrays:
   k-points           NKPTS =      1   k-points in BZ     NKDIM =      1   number of bands    NBANDS=    160
   number of dos      NEDOS =    301   number of ions     NIONS =     60
   non local maximal  LDIM  =      4   non local SUM 2l+1 LMDIM =      8
   total plane-waves  NPLWV = ******
   max r-space proj   IRMAX =      1   max aug-charges    IRDMAX=  43535
   dimension x,y,z NGX =   108 NGY =  108 NGZ =  108
   dimension x,y,z NGXF=   216 NGYF=  216 NGZF=  216
   support grid    NGXF=   432 NGYF=  432 NGZF=  432
   ions per type =              60
   NGX,Y,Z   is equivalent  to a cutoff of  12.82, 12.82, 12.82 a.u.
   NGXF,Y,Z  is equivalent  to a cutoff of  25.65, 25.65, 25.65 a.u.

 SYSTEM =  C60 BEC example8 L-14 mx                
 POSCAR =  C60 | isolated, centered, L=14.0 Å, vac

 Startparameter for this run:
   NWRITE =      2    write-flag & timer
   PREC   = accura    normal or accurate (medium, high low for compatibility)
   ISTART =      0    job   : 0-new  1-cont  2-samecut
   ICHARG =      2    charge: 1-file 2-atom 10-const
   ISPIN  =      1    spin polarized calculation?
   LNONCOLLINEAR =      F non collinear calculations
   LSORBIT =      F    spin-orbit coupling
   INIWAV =      1    electr: 0-lowe 1-rand  2-diag
   LASPH  =      T    aspherical Exc in radial PAW
 Electronic Relaxation 1
   ENCUT  =  520.0 eV  38.22 Ry    6.18 a.u.  26.03 26.03 26.03*2*pi/ulx,y,z
   ENINI  =  520.0     initial cutoff
   ENAUG  =  644.9 eV  augmentation charge cutoff
   NELM   =    200;   NELMIN=  2; NELMDL= -5     # of ELM steps 
   EDIFF  = 0.1E-07   stopping-criterion for ELM
   LREAL  =      F    real-space projection
   NLSPLINE    = F    spline interpolate recip. space projectors
   LCOMPAT=      F    compatible to vasp.4.4
   GGA_COMPAT  = T    GGA compatible to vasp.4.4-vasp.4.6
   LMAXPAW     = -100 max onsite density
   LMAXMIX     =    2 max onsite mixed and CHGCAR
   VOSKOWN=      0    Vosko Wilk Nusair interpolation
   ROPT   =    0.00000
 Ionic relaxation
   EDIFFG = 0.1E-06   stopping-criterion for IOM
   NSW    =      0    number of steps for IOM
   NBLOCK =      1;   KBLOCK =      1    inner block; outer block 
   IBRION =     -1    ionic relax: 0-MD 1-quasi-New 2-CG
   NFREE  =      0    steps in history (QN), initial steepest desc. (CG)
   ISIF   =      2    stress and relaxation
   IWAVPR =     10    prediction:  0-non 1-charg 2-wave 3-comb
   ISYM   =      0    0-nonsym 1-usesym 2-fastsym
   LCORR  =      T    Harris-Foulkes like correction to forces

   POTIM  = 0.5000    time-step for ionic-motion
   TEIN   =    0.0    initial temperature
   TEBEG  =    0.0;   TEEND  =   0.0 temperature during run
   SMASS  =  -3.00    Nose mass-parameter (am)
   estimated Nose-frequenzy (Omega)   =  0.10E-29 period in steps = 0.13E+47 mass=  -0.448E-26a.u.
   SCALEE = 1.0000    scale energy and forces
   NPACO  =    256;   APACO  = 10.0  distance and # of slots for P.C.
   PSTRESS=    0.0 pullay stress

  Mass of Ions in am
   POMASS =  12.01
  Ionic Valenz
   ZVAL   =   4.00
  Atomic Wigner-Seitz radii
   RWIGS  =  -1.00
  virtual crystal weights 
   VCA    =   1.00
   NELECT =     240.0000    total number of electrons
   NUPDOWN=      -1.0000    fix difference up-down

 DOS related values:
   EMIN   =  10.00;   EMAX   =-10.00  energy-range for DOS
   EFERMI =   0.00;   METHOD = LEGACY      
   ISMEAR =     0;   SIGMA  =   0.05  broadening in eV -4-tet -1-fermi 0-gaus

 Electronic relaxation 2 (details)
   IALGO  =     38    algorithm
   LDIAG  =      T    sub-space diagonalisation (order eigenvalues)
   LSUBROT=      F    optimize rotation matrix (better conditioning)
   TURBO    =      0    0=normal 1=particle mesh
   IRESTART =      0    0=no restart 2=restart with 2 vectors
   NREBOOT  =      0    no. of reboots
   NMIN     =      0    reboot dimension
   EREF     =   0.00    reference energy to select bands
   IMIX   =      4    mixing-type and parameters
     AMIX     =   0.40;   BMIX     =  1.00
     AMIX_MAG =   1.60;   BMIX_MAG =  1.00
     AMIN     =   0.10
     WC   =   100.;   INIMIX=   1;  MIXPRE=   1;  MAXMIX= -45

 Intra band minimization:
   WEIMIN = 0.0000     energy-eigenvalue tresh-hold
   EBREAK =  0.16E-10  absolut break condition
   DEPER  =   0.30     relativ break condition  

   TIME   =   0.40     timestep for ELM

  volume/ion in A,a.u.               =      45.73       308.62
  Fermi-wavevector in a.u.,A,eV,Ry     =   0.726692  1.373249  7.184987  0.528082
  Thomas-Fermi vector in A             =   1.817729
 
 Write flags
   LWAVE        =      F    write WAVECAR
   LDOWNSAMPLE  =      F    k-point downsampling of WAVECAR
   LCHARG       =      F    write CHGCAR
   LVTOT        =      F    write LOCPOT, total local potential
   LVHAR        =      F    write LOCPOT, Hartree potential only
   WRT_POTENTIAL= false  ! write potential to hdf5 file
   LELF         =      F    write electronic localiz. function (ELF)
   LORBIT       =      0    0 simple, 1 ext, 2 COOP (PROOUT), +10 PAW based schemes


 Dipole corrections
   LMONO      =      F    monopole corrections only (constant potential shift)
   LDIPOL     =      F    correct potential (dipole corrections)
   IDIPOL     =      0    1-x, 2-y, 3-z, 4-all directions 
   EPSILON    =  1.0000000 bulk dielectric constant
   LVACPOTAV  =      F  vacuum potentials using an averaging scheme for the charge density
   VACPOTFLAT =  0.1000000 required flatness to determine vacuum potential
 Exchange correlation treatment:
   GGA     = PE    functional components
   XC_C    = 1    coefficients multiplying the functional components
   LIBXC   =     F    Libxc                    
   VOSKOWN =     0    Vosko Wilk Nusair interpolation
   LHFCALC =     F    Hartree Fock is set to
   LHFONE  =     F    Hartree Fock one center treatment
   AEXX    =    0.0000 exact exchange contribution

 Parameters of functionals:
   PE:
     No parameter
 
 Van der Waals corrections
   IVDW    =     0    specifies the selected vdW correction

 Linear response parameters
   LEPSILON=     F    determine dielectric tensor
   LRPA    =     F    only Hartree local field effects (RPA)
   LNABLA  =     F    use nabla operator in PAW spheres
   LVEL    =     F    velocity operator in full k-point grid
   CSHIFT  =0.1000    complex shift for real part using Kramers Kronig
   OMEGAMAX=  -1.0    maximum frequency
   DEG_THRESHOLD= 0.2000000E-02 threshold for treating states as degnerate
   RTIME   =   -0.100 relaxation time in fs
  (WPLASMAI=    0.000 imaginary part of plasma frequency in eV, 0.658/RTIME)
   DFIELD  = 0.0000000 0.0000000 0.0000000 field for delta impulse in time
 
  Optional k-point grid parameters
   LKPOINTS_OPT  =     F    use optional k-point grid
   KPOINTS_OPT_MODE=     1    mode for optional k-point grid
 
 Orbital magnetization related:
   ORBITALMAG=     F  switch on orbital magnetization
   LCHIMAG   =     F  perturbation theory with respect to B field
   DQ        =  0.001000  dq finite difference perturbation B field
   LLRAUG    =     F  two centre corrections for induced B field
   LBONE     =     F  B-component reconstruction in AE one-centre
   LVGVCALC  =     T  calculate vGv susceptibility
   LVGVAPPL  =     F  apply vGv susceptibility instead of pGv for G=0

 PEAD related settings:
   LPEAD      =     T    switch on PEAD
   IPEAD      =     4    finite difference order for dpsi/dk
   LCALCPOL   =     F    calculate macroscopic polarization
   LCALCEPS   =     T    calculate dielectric tensor
   EFIELD_PEAD=   -0.1414    0.0100    0.0100
   SKIP_EDOTP =     F
   LRPA       =     F
   SKIP_SCF   =     F
 Random number generation:
   RANDOM_GENERATOR = DEFAULT
   PCG_SEED         = not used


--------------------------------------------------------------------------------------------------------


 Static calculation
 charge density and potential will be updated during run
 non-spin polarized calculation
 Variant of blocked Davidson
 Davidson routine will perform the subspace rotation
 perform sub-space diagonalisation
    after iterative eigenvector-optimisation
 modified Broyden-mixing scheme, WC =      100.0
 initial mixing is a Kerker type mixing with AMIX =  0.4000 and BMIX =      1.0000
 Hartree-type preconditioning will be used
 using additional bands           40
 reciprocal scheme for non local part
 use partial core corrections
 calculate Harris-corrections to forces 
   (improved forces if not selfconsistent)
 use gradient corrections 
 use of overlap-Matrix (Vanderbilt PP)
 Gauss-broadening in eV      SIGMA  =   0.05


--------------------------------------------------------------------------------------------------------


  energy-cutoff  :      520.00
  volume of cell :     2744.00
      direct lattice vectors                 reciprocal lattice vectors
      9.899494937  -9.899494937   0.000000000      0.050507627  -0.050507627   0.000000000
      9.899494937   9.899494937   0.000000000      0.050507627   0.050507627   0.000000000
      0.000000000   0.000000000  14.000000000      0.000000000   0.000000000   0.071428571

  length of vectors
     14.000000000  14.000000000  14.000000000      0.071428571   0.071428571   0.071428571


 
 k-points in units of 2pi/SCALE and weight: Automatic mesh                          
   0.00000000  0.00000000  0.00000000       1.000
 
 k-points in reciprocal lattice and weights: Automatic mesh                          
   0.00000000  0.00000000  0.00000000       1.000
 
 position of ions in fractional coordinates (direct lattice) 
   0.64884630  0.40375572  0.31822993
   0.59975942  0.31900645  0.35257914
   0.58121487  0.45971576  0.26287169
   0.50182774  0.32258374  0.31840690
   0.49037181  0.40956357  0.26297073
   0.71596460  0.44962747  0.37635061
   0.61956577  0.28332267  0.44377979
   0.58319492  0.55949591  0.26773579
   0.42735517  0.29031663  0.37669718
   0.40489994  0.46109344  0.26791052
   0.73650998  0.41254045  0.47106982
   0.68925912  0.33092988  0.50415143
   0.71798235  0.55327100  0.38141390
   0.65283838  0.60712445  0.32814430
   0.54222222  0.24978806  0.50431980
   0.44793235  0.25321509  0.47141260
   0.49442626  0.61300547  0.27280719
   0.40694781  0.56472269  0.27288416
   0.33860703  0.34386524  0.38182335
   0.32758877  0.42762635  0.32847559
   0.75127768  0.49326777  0.53462228
   0.73980620  0.58025017  0.47921105
   0.65494309  0.32688240  0.60201469
   0.56407584  0.27671730  0.60213241
   0.60710718  0.69008633  0.37053078
   0.50920901  0.69371495  0.33633054
   0.37188323  0.28382369  0.53505491
   0.30429283  0.33980047  0.47967697
   0.33087221  0.59529717  0.33651675
   0.28182327  0.51053951  0.37088021
   0.71822307  0.48937659  0.62883200
   0.66914738  0.40462327  0.66315573
   0.69573564  0.66009524  0.52005084
   0.62815315  0.71607640  0.46467699
   0.49083142  0.30617508  0.66339973
   0.39293117  0.30982138  0.62919422
   0.43596050  0.72317225  0.39758416
   0.34509012  0.67302611  0.39768048
   0.26021613  0.41964936  0.52050474
   0.24875832  0.50663556  0.46508175
   0.67245030  0.57229737  0.67124233
   0.66142816  0.65606134  0.61790416
   0.59306485  0.43520474  0.72676442
   0.50560174  0.38691221  0.72688073
   0.55209481  0.74669510  0.52830315
   0.45780638  0.75011970  0.49539433
   0.34719393  0.39278602  0.67156925
   0.28206033  0.44665123  0.61829365
   0.31075981  0.66899211  0.49553829
   0.26350564  0.58737869  0.52861458
   0.59512150  0.53883170  0.73177599
   0.57266874  0.70960096  0.62301010
   0.41683929  0.44044264  0.73195025
   0.38044436  0.71661077  0.55591735
   0.28407245  0.55029908  0.62333259
   0.50964723  0.59036637  0.73671626
   0.49818453  0.67734668  0.68128689
   0.41880415  0.54021968  0.73679597
   0.40025746  0.68092647  0.64710172
   0.35118056  0.59618186  0.68143820
 
 position of ions in cartesian coordinates  (Angst):
  10.42022834 -2.42627293  4.45521903
   9.09531806 -2.77931258  4.93610797
  10.30468747 -1.20277980  3.68020364
   8.16125725 -1.77442510  4.45769655
   8.90890578 -0.79996076  3.68159016
  11.53877274 -2.63660306  5.26890860
   8.93813951 -3.32863689  6.21291709
  11.31206203 -0.23460820  3.74830108
   7.10458835 -1.35661237  5.27376046
   8.57289707  0.55628721  3.75074724
  11.37501890 -3.20713466  6.59497743
  10.09935584 -3.54727845  7.05811997
  12.58476609 -1.63055912  5.33979457
  12.47299559 -0.45254479  4.59402020
   7.84050170 -2.89495050  7.06047716
   6.94100554 -1.92760258  6.59977634
  10.96301476  1.17387426  3.81930069
   9.61904719  1.56189168  3.82037825
   6.75613077  0.05205354  5.34552694
   7.47624817  0.99032151  4.59865824
  12.32037147 -2.55416780  7.48471189
  13.06789130 -1.57952406  6.70895476
   9.71957645 -3.24763512  8.42820560
   8.32342751 -2.84470443  8.42985380
  12.84156064  0.82145168  5.18743096
  11.90833966  1.82651569  4.70862763
   6.49116729 -0.87174493  7.49076880
   6.37619834  0.35150766  6.71547752
   9.16860905  2.61767349  4.71123456
   7.84399125  2.26417526  5.19232297
  11.95462670 -2.26546455  8.80364795
  10.62978714 -2.61865516  9.28418016
  13.42204097 -0.35282194  7.28071170
  13.30719354  0.87039577  6.50547790
   7.88996186 -1.82800456  9.28759620
   6.95689528 -0.82274500  8.80871905
  11.47482882  2.84325122  5.56617831
  10.07883649  3.24640073  5.56752678
   6.73032497  1.57830851  7.28706642
   7.47801786  2.55285441  6.51114445
  12.32237326 -0.99146335  9.39739262
  13.04248065 -0.05312878  8.65065817
  10.17934957 -1.56273532 10.17470182
   8.83543731 -1.17496646 10.17633028
  12.85736409  1.92644458  7.39624404
  11.95785806  2.89375421  6.93552066
   7.32542778  0.45133860  9.40196954
   7.21387632  1.62936678  8.65611117
   9.69904920  3.54631885  6.93753608
   8.42332516  3.20617965  7.40060418
  11.22556389 -0.55724061 10.24486382
  12.69382246  1.35555984  8.72214146
   8.48665809  0.23366125 10.24730343
  10.86029167  3.32787771  7.78284293
   8.25985672  2.63550914  8.72665626
  10.88957907  0.79907866 10.31402762
  11.63716527  1.77361477  9.53801644
   9.49385148  1.20195241 10.31514359
  10.70317474  2.77848144  9.05942402
   9.37840951  2.42538911  9.54013480
 


--------------------------------------------------------------------------------------------------------


 k-point     1 :   0.0000 0.0000 0.0000  plane waves:   73885

 maximum and minimum number of plane-waves per node :     73885    73885

 maximum number of plane-waves:     73885
 maximum index in each direction: 
   IXMAX=   26   IYMAX=   26   IZMAX=   26
   IXMIN=  -26   IYMIN=  -26   IZMIN=  -26


 serial   3D FFT for wavefunctions
 parallel 3D FFT for charge:
    minimum data exchange during FFTs selected (reduces bandwidth)


 total amount of memory used by VASP MPI-rank0   230629. kBytes
=======================================================================

   base      :      30000. kBytes
   nonl-proj :      75661. kBytes
   fftplans  :      52487. kBytes
   grid      :      66348. kBytes
   one-center:        184. kBytes
   wavefun   :       5949. kBytes
 
     INWAV:  cpu time      0.0000: real time      0.0001
 Broyden mixing: mesh for mixing (old mesh)
   NGX = 53   NGY = 53   NGZ = 53
  (NGX  =216   NGY  =216   NGZ  =216)
  gives a total of 148877 points

 initial charge density was supplied:
 charge density of overlapping atoms calculated
 number of electron     240.0000000 magnetization 
 keeping initial charge density in first step


--------------------------------------------------------------------------------------------------------


 Maximum index for augmentation-charges         1466 (set IRDMAX)


--------------------------------------------------------------------------------------------------------


 First call to EWALD:  gamma=   0.127
 Maximum number of real-space cells 3x 3x 3
 Maximum number of reciprocal cells 3x 3x 3

    FEWALD:  cpu time      0.0022: real time      0.0022


--------------------------------------- Ionic step        1  -------------------------------------------




--------------------------------------- Iteration      1(   1)  ---------------------------------------


    POTLOK:  cpu time      0.1662: real time      0.1673
    SETDIJ:  cpu time      0.1890: real time      0.1893
     EDDAV:  cpu time      3.7495: real time      3.7733
       DOS:  cpu time      0.0005: real time      0.0006
    --------------------------------------------
      LOOP:  cpu time      4.1052: real time      4.1305

 eigenvalue-minimisations  :   320
 total energy-change (2. order) : 0.2298061E+04  (-0.8759308E+04)
 number of electron     240.0000000 magnetization 
 augmentation part      240.0000000 magnetization 

 Free energy of the ion-electron system (eV)
  ---------------------------------------------------
  alpha Z        PSCENC =       107.77265948
  Ewald energy   TEWEN  =     24585.34044588
  -Hartree energ DENC   =    -31075.24411798
  -exchange      EXHF   =         0.00000000
  -V(xc)+E(xc)   XCENC  =       788.64363849
  PAW double counting   =      6511.32278280    -6545.48713133
  entropy T*S    EENTRO =        -0.00983771
  eigenvalues    EBANDS =      -903.21116417
  atomic energy  EATOM  =      8828.93359873
  Solvation  Ediel_sol  =         0.00000000
  ---------------------------------------------------
  free energy    TOTEN  =      2298.06087420 eV

  energy without entropy =     2298.07071191  energy(sigma->0) =     2298.06579305


--------------------------------------------------------------------------------------------------------




--------------------------------------- Iteration      1(   2)  ---------------------------------------


     EDDAV:  cpu time      5.4791: real time      5.4909
       DOS:  cpu time      0.0002: real time      0.0002
    --------------------------------------------
      LOOP:  cpu time      5.4793: real time      5.4911

 eigenvalue-minimisations  :   512
 total energy-change (2. order) :-0.2435870E+04  (-0.2365230E+04)
 number of electron     240.0000000 magnetization 
 augmentation part      240.0000000 magnetization 

 Free energy of the ion-electron system (eV)
  ---------------------------------------------------
  alpha Z        PSCENC =       107.77265948
  Ewald energy   TEWEN  =     24585.34044588
  -Hartree energ DENC   =    -31075.24411798
  -exchange      EXHF   =         0.00000000
  -V(xc)+E(xc)   XCENC  =       788.64363849
  PAW double counting   =      6511.32278280    -6545.48713133
  entropy T*S    EENTRO =        -0.00000000
  eigenvalues    EBANDS =     -3339.09050666
  atomic energy  EATOM  =      8828.93359873
  Solvation  Ediel_sol  =         0.00000000
  ---------------------------------------------------
  free energy    TOTEN  =      -137.80863059 eV

  energy without entropy =     -137.80863059  energy(sigma->0) =     -137.80863059


--------------------------------------------------------------------------------------------------------




--------------------------------------- Iteration      1(   3)  ---------------------------------------


     EDDAV:  cpu time      4.3261: real time      4.3390
       DOS:  cpu time      0.0002: real time      0.0001
    --------------------------------------------
      LOOP:  cpu time      4.3262: real time      4.3391

 eigenvalue-minimisations  :   384
 total energy-change (2. order) :-0.4160942E+03  (-0.4141908E+03)
 number of electron     240.0000000 magnetization 
 augmentation part      240.0000000 magnetization 

 Free energy of the ion-electron system (eV)
  ---------------------------------------------------
  alpha Z        PSCENC =       107.77265948
  Ewald energy   TEWEN  =     24585.34044588
  -Hartree energ DENC   =    -31075.24411798
  -exchange      EXHF   =         0.00000000
  -V(xc)+E(xc)   XCENC  =       788.64363849
  PAW double counting   =      6511.32278280    -6545.48713133
  entropy T*S    EENTRO =        -0.00000000
  eigenvalues    EBANDS =     -3755.18470273
  atomic energy  EATOM  =      8828.93359873
  Solvation  Ediel_sol  =         0.00000000
  ---------------------------------------------------
  free energy    TOTEN  =      -553.90282666 eV

  energy without entropy =     -553.90282666  energy(sigma->0) =     -553.90282666


--------------------------------------------------------------------------------------------------------




--------------------------------------- Iteration      1(   4)  ---------------------------------------


     EDDAV:  cpu time      4.6187: real time      4.6247
       DOS:  cpu time      0.0002: real time      0.0002
    --------------------------------------------
      LOOP:  cpu time      4.6189: real time      4.6249

 eigenvalue-minimisations  :   416
 total energy-change (2. order) :-0.1461511E+02  (-0.1452327E+02)
 number of electron     240.0000000 magnetization 
 augmentation part      240.0000000 magnetization 

 Free energy of the ion-electron system (eV)
  ---------------------------------------------------
  alpha Z        PSCENC =       107.77265948
  Ewald energy   TEWEN  =     24585.34044588
  -Hartree energ DENC   =    -31075.24411798
  -exchange      EXHF   =         0.00000000
  -V(xc)+E(xc)   XCENC  =       788.64363849
  PAW double counting   =      6511.32278280    -6545.48713133
  entropy T*S    EENTRO =        -0.00000000
  eigenvalues    EBANDS =     -3769.79981501
  atomic energy  EATOM  =      8828.93359873
  Solvation  Ediel_sol  =         0.00000000
  ---------------------------------------------------
  free energy    TOTEN  =      -568.51793893 eV

  energy without entropy =     -568.51793893  energy(sigma->0) =     -568.51793893


--------------------------------------------------------------------------------------------------------




--------------------------------------- Iteration      1(   5)  ---------------------------------------


     EDDAV:  cpu time      5.4838: real time      5.4980
       DOS:  cpu time      0.0002: real time      0.0002
    CHARGE:  cpu time      0.2445: real time      0.2447
    MIXING:  cpu time      0.0132: real time      0.0132
    --------------------------------------------
      LOOP:  cpu time      5.7418: real time      5.7563

 eigenvalue-minimisations  :   512
 total energy-change (2. order) :-0.4299339E+00  (-0.4292970E+00)
 number of electron     240.0000000 magnetization 
 augmentation part        6.2731871 magnetization 

 Broyden mixing:
  rms(total) = 0.33925E+01    rms(broyden)= 0.33921E+01
  rms(prec ) = 0.39059E+01
  weight for this iteration     100.00

 Free energy of the ion-electron system (eV)
  ---------------------------------------------------
  alpha Z        PSCENC =       107.77265948
  Ewald energy   TEWEN  =     24585.34044588
  -Hartree energ DENC   =    -31075.24411798
  -exchange      EXHF   =         0.00000000
  -V(xc)+E(xc)   XCENC  =       788.64363849
  PAW double counting   =      6511.32278280    -6545.48713133
  entropy T*S    EENTRO =        -0.00000000
  eigenvalues    EBANDS =     -3770.22974894
  atomic energy  EATOM  =      8828.93359873
  Solvation  Ediel_sol  =         0.00000000
  ---------------------------------------------------
  free energy    TOTEN  =      -568.94787286 eV

  energy without entropy =     -568.94787286  energy(sigma->0) =     -568.94787286


--------------------------------------------------------------------------------------------------------




--------------------------------------- Iteration      1(   6)  ---------------------------------------


    POTLOK:  cpu time      0.1542: real time      0.1610
    SETDIJ:  cpu time      0.1857: real time      0.1858
     EDDAV:  cpu time      3.7404: real time      3.7437
       DOS:  cpu time      0.0001: real time      0.0001
    CHARGE:  cpu time      0.2475: real time      0.2477
    MIXING:  cpu time      0.0080: real time      0.0080
    --------------------------------------------
      LOOP:  cpu time      4.3360: real time      4.3463

 eigenvalue-minimisations  :   320
 total energy-change (2. order) : 0.2811620E+02  (-0.2741477E+01)
 number of electron     240.0000000 magnetization 
 augmentation part        5.9826378 magnetization 

 Broyden mixing:
  rms(total) = 0.19496E+01    rms(broyden)= 0.19496E+01
  rms(prec ) = 0.21966E+01
  weight for this iteration     100.00

 eigenvalues of (default mixing * dielectric matrix)
  average eigenvalue GAMMA=   2.1632
  2.1632

 Free energy of the ion-electron system (eV)
  ---------------------------------------------------
  alpha Z        PSCENC =       107.77265948
  Ewald energy   TEWEN  =     24585.34044588
  -Hartree energ DENC   =    -31430.29158044
  -exchange      EXHF   =         0.00000000
  -V(xc)+E(xc)   XCENC  =       802.26322859
  PAW double counting   =     11758.64007831   -11797.21378251
  entropy T*S    EENTRO =        -0.00000000
  eigenvalues    EBANDS =     -3396.27632170
  atomic energy  EATOM  =      8828.93359873
  Solvation  Ediel_sol  =         0.00000000
  ---------------------------------------------------
  free energy    TOTEN  =      -540.83167368 eV

  energy without entropy =     -540.83167368  energy(sigma->0) =     -540.83167368


--------------------------------------------------------------------------------------------------------




--------------------------------------- Iteration      1(   7)  ---------------------------------------


    POTLOK:  cpu time      0.1531: real time      0.1615
    SETDIJ:  cpu time      0.1844: real time      0.1846
     EDDAV:  cpu time      4.6019: real time      4.6082
       DOS:  cpu time      0.0002: real time      0.0002
    CHARGE:  cpu time      0.2466: real time      0.2469
    MIXING:  cpu time      0.0087: real time      0.0087
    --------------------------------------------
      LOOP:  cpu time      5.1949: real time      5.2101

 eigenvalue-minimisations  :   416
 total energy-change (2. order) : 0.9571357E+01  (-0.3570707E+01)
 number of electron     240.0000000 magnetization 
 augmentation part        5.6410620 magnetization 

 Broyden mixing:
  rms(total) = 0.55850E+00    rms(broyden)= 0.55840E+00
  rms(prec ) = 0.59915E+00
  weight for this iteration     100.00

 eigenvalues of (default mixing * dielectric matrix)
  average eigenvalue GAMMA=   2.3578
  2.3578  2.3578

 Free energy of the ion-electron system (eV)
  ---------------------------------------------------
  alpha Z        PSCENC =       107.77265948
  Ewald energy   TEWEN  =     24585.34044588
  -Hartree energ DENC   =    -31861.83949617
  -exchange      EXHF   =         0.00000000
  -V(xc)+E(xc)   XCENC  =       820.01080926
  PAW double counting   =     21280.09173652   -21322.50589902
  entropy T*S    EENTRO =        -0.00000000
  eigenvalues    EBANDS =     -2969.06417135
  atomic energy  EATOM  =      8828.93359873
  Solvation  Ediel_sol  =         0.00000000
  ---------------------------------------------------
  free energy    TOTEN  =      -531.26031668 eV

  energy without entropy =     -531.26031668  energy(sigma->0) =     -531.26031668


--------------------------------------------------------------------------------------------------------




--------------------------------------- Iteration      1(   8)  ---------------------------------------


    POTLOK:  cpu time      0.1524: real time      0.1607
    SETDIJ:  cpu time      0.1842: real time      0.1844
     EDDAV:  cpu time      4.8936: real time      4.8982
       DOS:  cpu time      0.0002: real time      0.0002
    CHARGE:  cpu time      0.2489: real time      0.2492
    MIXING:  cpu time      0.0071: real time      0.0071
    --------------------------------------------
      LOOP:  cpu time      5.4864: real time      5.4997

 eigenvalue-minimisations  :   448
 total energy-change (2. order) : 0.8005904E-01  (-0.2629445E+00)
 number of electron     240.0000000 magnetization 
 augmentation part        5.6446433 magnetization 

 Broyden mixing:
  rms(total) = 0.10394E+00    rms(broyden)= 0.10393E+00
  rms(prec ) = 0.18005E+00
  weight for this iteration     100.00

 eigenvalues of (default mixing * dielectric matrix)
  average eigenvalue GAMMA=   1.8271
  2.4089  1.5362  1.5362

 Free energy of the ion-electron system (eV)
  ---------------------------------------------------
  alpha Z        PSCENC =       107.77265948
  Ewald energy   TEWEN  =     24585.34044588
  -Hartree energ DENC   =    -31883.81396702
  -exchange      EXHF   =         0.00000000
  -V(xc)+E(xc)   XCENC  =       820.22853400
  PAW double counting   =     24138.08239149   -24178.75984150
  entropy T*S    EENTRO =        -0.00000000
  eigenvalues    EBANDS =     -2948.96407869
  atomic energy  EATOM  =      8828.93359873
  Solvation  Ediel_sol  =         0.00000000
  ---------------------------------------------------
  free energy    TOTEN  =      -531.18025764 eV

  energy without entropy =     -531.18025764  energy(sigma->0) =     -531.18025764


--------------------------------------------------------------------------------------------------------




--------------------------------------- Iteration      1(   9)  ---------------------------------------


    POTLOK:  cpu time      0.1524: real time      0.1606
    SETDIJ:  cpu time      0.1850: real time      0.1851
     EDDAV:  cpu time      3.7342: real time      3.7396
       DOS:  cpu time      0.0001: real time      0.0001
    CHARGE:  cpu time      0.2478: real time      0.2480
    MIXING:  cpu time      0.0064: real time      0.0064
    --------------------------------------------
      LOOP:  cpu time      4.3259: real time      4.3399

 eigenvalue-minimisations  :   320
 total energy-change (2. order) : 0.8877014E-01  (-0.3238113E-01)
 number of electron     240.0000000 magnetization 
 augmentation part        5.6201507 magnetization 

 Broyden mixing:
  rms(total) = 0.48268E-01    rms(broyden)= 0.48263E-01
  rms(prec ) = 0.97919E-01
  weight for this iteration     100.00

 eigenvalues of (default mixing * dielectric matrix)
  average eigenvalue GAMMA=   1.8138
  2.3391  2.3391  1.2885  1.2885

 Free energy of the ion-electron system (eV)
  ---------------------------------------------------
  alpha Z        PSCENC =       107.77265948
  Ewald energy   TEWEN  =     24585.34044588
  -Hartree energ DENC   =    -31922.82042093
  -exchange      EXHF   =         0.00000000
  -V(xc)+E(xc)   XCENC  =       821.18720907
  PAW double counting   =     24171.82108348   -24212.84843490
  entropy T*S    EENTRO =        -0.00000000
  eigenvalues    EBANDS =     -2910.47762830
  atomic energy  EATOM  =      8828.93359873
  Solvation  Ediel_sol  =         0.00000000
  ---------------------------------------------------
  free energy    TOTEN  =      -531.09148750 eV

  energy without entropy =     -531.09148750  energy(sigma->0) =     -531.09148750


--------------------------------------------------------------------------------------------------------




--------------------------------------- Iteration      1(  10)  ---------------------------------------


    POTLOK:  cpu time      0.1522: real time      0.1600
    SETDIJ:  cpu time      0.1850: real time      0.1852
     EDDAV:  cpu time      5.2005: real time      5.2053
       DOS:  cpu time      0.0002: real time      0.0002
    CHARGE:  cpu time      0.2499: real time      0.2501
    MIXING:  cpu time      0.0063: real time      0.0063
    --------------------------------------------
      LOOP:  cpu time      5.7941: real time      5.8070

 eigenvalue-minimisations  :   480
 total energy-change (2. order) : 0.1116195E-01  (-0.4721133E-02)
 number of electron     240.0000000 magnetization 
 augmentation part        5.6169172 magnetization 

 Broyden mixing:
  rms(total) = 0.27652E-01    rms(broyden)= 0.27651E-01
  rms(prec ) = 0.58927E-01
  weight for this iteration     100.00

 eigenvalues of (default mixing * dielectric matrix)
  average eigenvalue GAMMA=   1.8304
  2.6471  2.6471  1.4628  1.4628  0.9323

 Free energy of the ion-electron system (eV)
  ---------------------------------------------------
  alpha Z        PSCENC =       107.77265948
  Ewald energy   TEWEN  =     24585.34044588
  -Hartree energ DENC   =    -31953.33652873
  -exchange      EXHF   =         0.00000000
  -V(xc)+E(xc)   XCENC  =       821.31916254
  PAW double counting   =     24107.42429776   -24148.16152527
  entropy T*S    EENTRO =        -0.00000000
  eigenvalues    EBANDS =     -2880.37243592
  atomic energy  EATOM  =      8828.93359873
  Solvation  Ediel_sol  =         0.00000000
  ---------------------------------------------------
  free energy    TOTEN  =      -531.08032555 eV

  energy without entropy =     -531.08032555  energy(sigma->0) =     -531.08032555


--------------------------------------------------------------------------------------------------------




--------------------------------------- Iteration      1(  11)  ---------------------------------------


    POTLOK:  cpu time      0.1533: real time      0.1614
    SETDIJ:  cpu time      0.1890: real time      0.1892
     EDDAV:  cpu time      4.6054: real time      4.6152
       DOS:  cpu time      0.0002: real time      0.0002
    CHARGE:  cpu time      0.2352: real time      0.2354
    MIXING:  cpu time      0.0219: real time      0.0220
    --------------------------------------------
      LOOP:  cpu time      5.2051: real time      5.2233

 eigenvalue-minimisations  :   416
 total energy-change (2. order) :-0.2946100E-02  (-0.2577120E-02)
 number of electron     240.0000000 magnetization 
 augmentation part        5.6112543 magnetization 

 Broyden mixing:
  rms(total) = 0.18126E-01    rms(broyden)= 0.18125E-01
  rms(prec ) = 0.30979E-01
  weight for this iteration     100.00

 eigenvalues of (default mixing * dielectric matrix)
  average eigenvalue GAMMA=   1.9624
  3.4552  2.2819  2.2819  1.6067  1.1569  0.9919

 Free energy of the ion-electron system (eV)
  ---------------------------------------------------
  alpha Z        PSCENC =       107.77265948
  Ewald energy   TEWEN  =     24585.34044588
  -Hartree energ DENC   =    -31987.26965561
  -exchange      EXHF   =         0.00000000
  -V(xc)+E(xc)   XCENC  =       821.79356632
  PAW double counting   =     24075.09411163   -24115.82166083
  entropy T*S    EENTRO =        -0.00000000
  eigenvalues    EBANDS =     -2846.92633724
  atomic energy  EATOM  =      8828.93359873
  Solvation  Ediel_sol  =         0.00000000
  ---------------------------------------------------
  free energy    TOTEN  =      -531.08327165 eV

  energy without entropy =     -531.08327165  energy(sigma->0) =     -531.08327165


--------------------------------------------------------------------------------------------------------




--------------------------------------- Iteration      1(  12)  ---------------------------------------


    POTLOK:  cpu time      0.1520: real time      0.1602
    SETDIJ:  cpu time      0.1886: real time      0.1887
     EDDAV:  cpu time      4.3174: real time      4.3209
       DOS:  cpu time      0.0001: real time      0.0001
    CHARGE:  cpu time      0.2361: real time      0.2366
    MIXING:  cpu time      0.0221: real time      0.0221
    --------------------------------------------
      LOOP:  cpu time      4.9163: real time      4.9286

 eigenvalue-minimisations  :   384
 total energy-change (2. order) :-0.9148211E-02  (-0.1018568E-02)
 number of electron     240.0000000 magnetization 
 augmentation part        5.6066195 magnetization 

 Broyden mixing:
  rms(total) = 0.86461E-02    rms(broyden)= 0.86444E-02
  rms(prec ) = 0.15705E-01
  weight for this iteration     100.00

 eigenvalues of (default mixing * dielectric matrix)
  average eigenvalue GAMMA=   2.2279
  5.3028  2.6321  2.3100  1.6667  1.6667  1.0085  1.0085

 Free energy of the ion-electron system (eV)
  ---------------------------------------------------
  alpha Z        PSCENC =       107.77265948
  Ewald energy   TEWEN  =     24585.34044588
  -Hartree energ DENC   =    -32005.84505695
  -exchange      EXHF   =         0.00000000
  -V(xc)+E(xc)   XCENC  =       822.04553506
  PAW double counting   =     24047.18544495   -24087.98543612
  entropy T*S    EENTRO =        -0.00000000
  eigenvalues    EBANDS =     -2828.53961088
  atomic energy  EATOM  =      8828.93359873
  Solvation  Ediel_sol  =         0.00000000
  ---------------------------------------------------
  free energy    TOTEN  =      -531.09241986 eV

  energy without entropy =     -531.09241986  energy(sigma->0) =     -531.09241986


--------------------------------------------------------------------------------------------------------




--------------------------------------- Iteration      1(  13)  ---------------------------------------


    POTLOK:  cpu time      0.1537: real time      0.1615
    SETDIJ:  cpu time      0.1887: real time      0.1889
     EDDAV:  cpu time      4.3169: real time      4.3229
       DOS:  cpu time      0.0001: real time      0.0001
    CHARGE:  cpu time      0.2353: real time      0.2354
    MIXING:  cpu time      0.0219: real time      0.0219
    --------------------------------------------
      LOOP:  cpu time      4.9167: real time      4.9308

 eigenvalue-minimisations  :   384
 total energy-change (2. order) :-0.7595702E-02  (-0.1942581E-03)
 number of electron     240.0000000 magnetization 
 augmentation part        5.6068535 magnetization 

 Broyden mixing:
  rms(total) = 0.52809E-02    rms(broyden)= 0.52808E-02
  rms(prec ) = 0.85019E-02
  weight for this iteration     100.00

 eigenvalues of (default mixing * dielectric matrix)
  average eigenvalue GAMMA=   2.3386
  5.9377  3.2543  2.6008  1.9873  1.4510  1.4510  1.0133  1.0133

 Free energy of the ion-electron system (eV)
  ---------------------------------------------------
  alpha Z        PSCENC =       107.77265948
  Ewald energy   TEWEN  =     24585.34044588
  -Hartree energ DENC   =    -32011.18074603
  -exchange      EXHF   =         0.00000000
  -V(xc)+E(xc)   XCENC  =       821.97650926
  PAW double counting   =     24023.71260299   -24064.50969297
  entropy T*S    EENTRO =        -0.00000000
  eigenvalues    EBANDS =     -2823.14539289
  atomic energy  EATOM  =      8828.93359873
  Solvation  Ediel_sol  =         0.00000000
  ---------------------------------------------------
  free energy    TOTEN  =      -531.10001556 eV

  energy without entropy =     -531.10001556  energy(sigma->0) =     -531.10001556


--------------------------------------------------------------------------------------------------------




--------------------------------------- Iteration      1(  14)  ---------------------------------------


    POTLOK:  cpu time      0.1522: real time      0.1604
    SETDIJ:  cpu time      0.1879: real time      0.1880
     EDDAV:  cpu time      4.6108: real time      4.6150
       DOS:  cpu time      0.0002: real time      0.0002
    CHARGE:  cpu time      0.2375: real time      0.2379
    MIXING:  cpu time      0.0200: real time      0.0200
    --------------------------------------------
      LOOP:  cpu time      5.2085: real time      5.2215

 eigenvalue-minimisations  :   416
 total energy-change (2. order) :-0.8405624E-02  (-0.1288533E-03)
 number of electron     240.0000000 magnetization 
 augmentation part        5.6075572 magnetization 

 Broyden mixing:
  rms(total) = 0.46964E-02    rms(broyden)= 0.46964E-02
  rms(prec ) = 0.59554E-02
  weight for this iteration     100.00

 eigenvalues of (default mixing * dielectric matrix)
  average eigenvalue GAMMA=   2.3614
  6.6262  3.5889  2.3379  2.3379  1.6828  1.6828  1.0365  1.0365  0.9230

 Free energy of the ion-electron system (eV)
  ---------------------------------------------------
  alpha Z        PSCENC =       107.77265948
  Ewald energy   TEWEN  =     24585.34044588
  -Hartree energ DENC   =    -32010.75538238
  -exchange      EXHF   =         0.00000000
  -V(xc)+E(xc)   XCENC  =       821.91393377
  PAW double counting   =     24071.97054336   -24112.75390019
  entropy T*S    EENTRO =        -0.00000000
  eigenvalues    EBANDS =     -2823.53031983
  atomic energy  EATOM  =      8828.93359873
  Solvation  Ediel_sol  =         0.00000000
  ---------------------------------------------------
  free energy    TOTEN  =      -531.10842118 eV

  energy without entropy =     -531.10842118  energy(sigma->0) =     -531.10842118


--------------------------------------------------------------------------------------------------------




--------------------------------------- Iteration      1(  15)  ---------------------------------------


    POTLOK:  cpu time      0.1527: real time      0.1607
    SETDIJ:  cpu time      0.1886: real time      0.1887
     EDDAV:  cpu time      4.3190: real time      4.3247
       DOS:  cpu time      0.0001: real time      0.0001
    CHARGE:  cpu time      0.2406: real time      0.2409
    MIXING:  cpu time      0.0182: real time      0.0183
    --------------------------------------------
      LOOP:  cpu time      4.9193: real time      4.9333

 eigenvalue-minimisations  :   384
 total energy-change (2. order) :-0.3132054E-02  (-0.4259490E-04)
 number of electron     240.0000000 magnetization 
 augmentation part        5.6073059 magnetization 

 Broyden mixing:
  rms(total) = 0.97907E-03    rms(broyden)= 0.97903E-03
  rms(prec ) = 0.23113E-02
  weight for this iteration     100.00

 eigenvalues of (default mixing * dielectric matrix)
  average eigenvalue GAMMA=   2.4545
  7.1686  4.2679  2.7302  2.5170  1.8922  1.4874  1.4324  1.0964  0.9762  0.9762

 Free energy of the ion-electron system (eV)
  ---------------------------------------------------
  alpha Z        PSCENC =       107.77265948
  Ewald energy   TEWEN  =     24585.34044588
  -Hartree energ DENC   =    -32011.61634465
  -exchange      EXHF   =         0.00000000
  -V(xc)+E(xc)   XCENC  =       821.91915291
  PAW double counting   =     24045.71458164   -24086.50239831
  entropy T*S    EENTRO =        -0.00000000
  eigenvalues    EBANDS =     -2822.67324891
  atomic energy  EATOM  =      8828.93359873
  Solvation  Ediel_sol  =         0.00000000
  ---------------------------------------------------
  free energy    TOTEN  =      -531.11155324 eV

  energy without entropy =     -531.11155324  energy(sigma->0) =     -531.11155324


--------------------------------------------------------------------------------------------------------




--------------------------------------- Iteration      1(  16)  ---------------------------------------


    POTLOK:  cpu time      0.1518: real time      0.1601
    SETDIJ:  cpu time      0.1871: real time      0.1873
     EDDAV:  cpu time      4.0260: real time      4.0297
       DOS:  cpu time      0.0002: real time      0.0002
    CHARGE:  cpu time      0.2451: real time      0.2453
    MIXING:  cpu time      0.0092: real time      0.0092
    --------------------------------------------
      LOOP:  cpu time      4.6194: real time      4.6318

 eigenvalue-minimisations  :   352
 total energy-change (2. order) :-0.1793629E-02  (-0.2771000E-04)
 number of electron     240.0000000 magnetization 
 augmentation part        5.6070143 magnetization 

 Broyden mixing:
  rms(total) = 0.10914E-02    rms(broyden)= 0.10913E-02
  rms(prec ) = 0.16334E-02
  weight for this iteration     100.00

 eigenvalues of (default mixing * dielectric matrix)
  average eigenvalue GAMMA=   2.4528
  7.2626  4.5828  2.7517  2.7517  2.1224  1.7001  1.7001  0.9709  1.0208  1.0591
  1.0591

 Free energy of the ion-electron system (eV)
  ---------------------------------------------------
  alpha Z        PSCENC =       107.77265948
  Ewald energy   TEWEN  =     24585.34044588
  -Hartree energ DENC   =    -32012.54283248
  -exchange      EXHF   =         0.00000000
  -V(xc)+E(xc)   XCENC  =       821.93443889
  PAW double counting   =     24044.65059881   -24085.43797329
  entropy T*S    EENTRO =        -0.00000000
  eigenvalues    EBANDS =     -2821.76428288
  atomic energy  EATOM  =      8828.93359873
  Solvation  Ediel_sol  =         0.00000000
  ---------------------------------------------------
  free energy    TOTEN  =      -531.11334687 eV

  energy without entropy =     -531.11334687  energy(sigma->0) =     -531.11334687


--------------------------------------------------------------------------------------------------------




--------------------------------------- Iteration      1(  17)  ---------------------------------------


    POTLOK:  cpu time      0.1520: real time      0.1598
    SETDIJ:  cpu time      0.1860: real time      0.1861
     EDDAV:  cpu time      4.6101: real time      4.6167
       DOS:  cpu time      0.0002: real time      0.0002
    CHARGE:  cpu time      0.2451: real time      0.2453
    MIXING:  cpu time      0.0093: real time      0.0094
    --------------------------------------------
      LOOP:  cpu time      5.2027: real time      5.2175

 eigenvalue-minimisations  :   416
 total energy-change (2. order) :-0.3790392E-03  (-0.4419272E-05)
 number of electron     240.0000000 magnetization 
 augmentation part        5.6070147 magnetization 

 Broyden mixing:
  rms(total) = 0.65087E-03    rms(broyden)= 0.65082E-03
  rms(prec ) = 0.87445E-03
  weight for this iteration     100.00

 eigenvalues of (default mixing * dielectric matrix)
  average eigenvalue GAMMA=   2.5486
  7.7265  5.7546  3.4459  2.5438  2.2951  1.7918  1.7053  1.1893  1.1893  0.9259
  1.0078  1.0078

 Free energy of the ion-electron system (eV)
  ---------------------------------------------------
  alpha Z        PSCENC =       107.77265948
  Ewald energy   TEWEN  =     24585.34044588
  -Hartree energ DENC   =    -32012.47640106
  -exchange      EXHF   =         0.00000000
  -V(xc)+E(xc)   XCENC  =       821.93162726
  PAW double counting   =     24044.27875525   -24085.06714148
  entropy T*S    EENTRO =        -0.00000000
  eigenvalues    EBANDS =     -2821.82726996
  atomic energy  EATOM  =      8828.93359873
  Solvation  Ediel_sol  =         0.00000000
  ---------------------------------------------------
  free energy    TOTEN  =      -531.11372591 eV

  energy without entropy =     -531.11372591  energy(sigma->0) =     -531.11372591


--------------------------------------------------------------------------------------------------------




--------------------------------------- Iteration      1(  18)  ---------------------------------------


    POTLOK:  cpu time      0.1530: real time      0.1613
    SETDIJ:  cpu time      0.1860: real time      0.1862
     EDDAV:  cpu time      4.3177: real time      4.3218
       DOS:  cpu time      0.0001: real time      0.0001
    CHARGE:  cpu time      0.2437: real time      0.2442
    MIXING:  cpu time      0.0097: real time      0.0097
    --------------------------------------------
      LOOP:  cpu time      4.9103: real time      4.9233

 eigenvalue-minimisations  :   384
 total energy-change (2. order) :-0.1179679E-03  (-0.7824742E-06)
 number of electron     240.0000000 magnetization 
 augmentation part        5.6070626 magnetization 

 Broyden mixing:
  rms(total) = 0.22046E-03    rms(broyden)= 0.22033E-03
  rms(prec ) = 0.40365E-03
  weight for this iteration     100.00

 eigenvalues of (default mixing * dielectric matrix)
  average eigenvalue GAMMA=   2.5733
  7.7292  6.4461  3.6308  2.7261  2.5248  1.9215  1.5632  1.5632  0.9750  0.9750
  1.0729  1.1626  1.1626

 Free energy of the ion-electron system (eV)
  ---------------------------------------------------
  alpha Z        PSCENC =       107.77265948
  Ewald energy   TEWEN  =     24585.34044588
  -Hartree energ DENC   =    -32012.46303798
  -exchange      EXHF   =         0.00000000
  -V(xc)+E(xc)   XCENC  =       821.92968803
  PAW double counting   =     24046.16089503   -24086.94813398
  entropy T*S    EENTRO =        -0.00000000
  eigenvalues    EBANDS =     -2821.83995906
  atomic energy  EATOM  =      8828.93359873
  Solvation  Ediel_sol  =         0.00000000
  ---------------------------------------------------
  free energy    TOTEN  =      -531.11384387 eV

  energy without entropy =     -531.11384387  energy(sigma->0) =     -531.11384387


--------------------------------------------------------------------------------------------------------




--------------------------------------- Iteration      1(  19)  ---------------------------------------


    POTLOK:  cpu time      0.1520: real time      0.1598
    SETDIJ:  cpu time      0.1865: real time      0.1867
     EDDAV:  cpu time      4.6082: real time      4.6144
       DOS:  cpu time      0.0001: real time      0.0001
    CHARGE:  cpu time      0.2446: real time      0.2450
    MIXING:  cpu time      0.0101: real time      0.0101
    --------------------------------------------
      LOOP:  cpu time      5.2015: real time      5.2161

 eigenvalue-minimisations  :   416
 total energy-change (2. order) :-0.7689518E-04  (-0.2470587E-06)
 number of electron     240.0000000 magnetization 
 augmentation part        5.6071034 magnetization 

 Broyden mixing:
  rms(total) = 0.24788E-03    rms(broyden)= 0.24777E-03
  rms(prec ) = 0.32768E-03
  weight for this iteration     100.00

 eigenvalues of (default mixing * dielectric matrix)
  average eigenvalue GAMMA=   2.5775
  8.2018  6.5699  3.8307  2.9638  2.4654  2.2084  1.8298  1.6395  1.1938  1.1938
  0.9746  0.9746  1.0197  1.0197

 Free energy of the ion-electron system (eV)
  ---------------------------------------------------
  alpha Z        PSCENC =       107.77265948
  Ewald energy   TEWEN  =     24585.34044588
  -Hartree energ DENC   =    -32012.43614172
  -exchange      EXHF   =         0.00000000
  -V(xc)+E(xc)   XCENC  =       821.92725807
  PAW double counting   =     24047.83479312   -24088.62170913
  entropy T*S    EENTRO =        -0.00000000
  eigenvalues    EBANDS =     -2821.86482518
  atomic energy  EATOM  =      8828.93359873
  Solvation  Ediel_sol  =         0.00000000
  ---------------------------------------------------
  free energy    TOTEN  =      -531.11392077 eV

  energy without entropy =     -531.11392077  energy(sigma->0) =     -531.11392077


--------------------------------------------------------------------------------------------------------




--------------------------------------- Iteration      1(  20)  ---------------------------------------


    POTLOK:  cpu time      0.1520: real time      0.1598
    SETDIJ:  cpu time      0.1874: real time      0.1875
     EDDAV:  cpu time      4.6161: real time      4.6204
       DOS:  cpu time      0.0001: real time      0.0001
    CHARGE:  cpu time      0.2448: real time      0.2453
    MIXING:  cpu time      0.0096: real time      0.0096
    --------------------------------------------
      LOOP:  cpu time      5.2100: real time      5.2227

 eigenvalue-minimisations  :   416
 total energy-change (2. order) :-0.4344675E-04  (-0.9980002E-07)
 number of electron     240.0000000 magnetization 
 augmentation part        5.6071010 magnetization 

 Broyden mixing:
  rms(total) = 0.93704E-04    rms(broyden)= 0.93415E-04
  rms(prec ) = 0.14293E-03
  weight for this iteration     100.00

 eigenvalues of (default mixing * dielectric matrix)
  average eigenvalue GAMMA=   2.6023
  8.3317  6.7552  4.2355  3.2975  2.5669  2.3772  1.8577  1.7235  1.4574  1.1779
  1.1779  0.9557  1.0003  1.0003  1.1204

 Free energy of the ion-electron system (eV)
  ---------------------------------------------------
  alpha Z        PSCENC =       107.77265948
  Ewald energy   TEWEN  =     24585.34044588
  -Hartree energ DENC   =    -32012.46085134
  -exchange      EXHF   =         0.00000000
  -V(xc)+E(xc)   XCENC  =       821.92744663
  PAW double counting   =     24047.14134149   -24087.92840622
  entropy T*S    EENTRO =        -0.00000000
  eigenvalues    EBANDS =     -2821.84019886
  atomic energy  EATOM  =      8828.93359873
  Solvation  Ediel_sol  =         0.00000000
  ---------------------------------------------------
  free energy    TOTEN  =      -531.11396422 eV

  energy without entropy =     -531.11396422  energy(sigma->0) =     -531.11396422


--------------------------------------------------------------------------------------------------------




--------------------------------------- Iteration      1(  21)  ---------------------------------------


    POTLOK:  cpu time      0.1530: real time      0.1612
    SETDIJ:  cpu time      0.1846: real time      0.1848
     EDDAV:  cpu time      4.3134: real time      4.3192
       DOS:  cpu time      0.0001: real time      0.0001
    CHARGE:  cpu time      0.2441: real time      0.2444
    MIXING:  cpu time      0.0095: real time      0.0095
    --------------------------------------------
      LOOP:  cpu time      4.9049: real time      4.9193

 eigenvalue-minimisations  :   384
 total energy-change (2. order) :-0.1616379E-04  (-0.8460917E-07)
 number of electron     240.0000000 magnetization 
 augmentation part        5.6070856 magnetization 

 Broyden mixing:
  rms(total) = 0.45736E-04    rms(broyden)= 0.45141E-04
  rms(prec ) = 0.59652E-04
  weight for this iteration     100.00

 eigenvalues of (default mixing * dielectric matrix)
  average eigenvalue GAMMA=   2.6531
  8.9233  6.7978  4.9815  3.3869  2.5629  2.5629  2.1456  1.9514  1.5621  1.2095
  1.2095  0.9690  0.9690  1.0881  1.0651  1.0651

 Free energy of the ion-electron system (eV)
  ---------------------------------------------------
  alpha Z        PSCENC =       107.77265948
  Ewald energy   TEWEN  =     24585.34044588
  -Hartree energ DENC   =    -32012.51365007
  -exchange      EXHF   =         0.00000000
  -V(xc)+E(xc)   XCENC  =       821.92830557
  PAW double counting   =     24047.01628388   -24087.80339280
  entropy T*S    EENTRO =        -0.00000000
  eigenvalues    EBANDS =     -2821.78823104
  atomic energy  EATOM  =      8828.93359873
  Solvation  Ediel_sol  =         0.00000000
  ---------------------------------------------------
  free energy    TOTEN  =      -531.11398038 eV

  energy without entropy =     -531.11398038  energy(sigma->0) =     -531.11398038


--------------------------------------------------------------------------------------------------------




--------------------------------------- Iteration      1(  22)  ---------------------------------------


    POTLOK:  cpu time      0.1554: real time      0.1599
    SETDIJ:  cpu time      0.1844: real time      0.1846
     EDDAV:  cpu time      4.6049: real time      4.6091
       DOS:  cpu time      0.0002: real time      0.0002
    CHARGE:  cpu time      0.2451: real time      0.2454
    MIXING:  cpu time      0.0101: real time      0.0101
    --------------------------------------------
      LOOP:  cpu time      5.2001: real time      5.2093

 eigenvalue-minimisations  :   416
 total energy-change (2. order) :-0.5123649E-05  (-0.2843569E-07)
 number of electron     240.0000000 magnetization 
 augmentation part        5.6070829 magnetization 

 Broyden mixing:
  rms(total) = 0.23458E-04    rms(broyden)= 0.22278E-04
  rms(prec ) = 0.28153E-04
  weight for this iteration     100.00

 eigenvalues of (default mixing * dielectric matrix)
  average eigenvalue GAMMA=   2.6652
  9.0872  7.1009  5.4939  3.6057  2.8223  2.5084  2.2040  1.8481  1.7151  1.3042
  1.3042  1.1793  1.1793  1.0046  1.0046  0.9649  0.9818

 Free energy of the ion-electron system (eV)
  ---------------------------------------------------
  alpha Z        PSCENC =       107.77265948
  Ewald energy   TEWEN  =     24585.34044588
  -Hartree energ DENC   =    -32012.51163822
  -exchange      EXHF   =         0.00000000
  -V(xc)+E(xc)   XCENC  =       821.92839361
  PAW double counting   =     24046.81607922   -24087.60325556
  entropy T*S    EENTRO =        -0.00000000
  eigenvalues    EBANDS =     -2821.79026863
  atomic energy  EATOM  =      8828.93359873
  Solvation  Ediel_sol  =         0.00000000
  ---------------------------------------------------
  free energy    TOTEN  =      -531.11398550 eV

  energy without entropy =     -531.11398550  energy(sigma->0) =     -531.11398550


--------------------------------------------------------------------------------------------------------




--------------------------------------- Iteration      1(  23)  ---------------------------------------


    POTLOK:  cpu time      0.1537: real time      0.1619
    SETDIJ:  cpu time      0.1852: real time      0.1853
     EDDAV:  cpu time      4.3182: real time      4.3242
       DOS:  cpu time      0.0001: real time      0.0001
    CHARGE:  cpu time      0.2431: real time      0.2434
    MIXING:  cpu time      0.0099: real time      0.0099
    --------------------------------------------
      LOOP:  cpu time      4.9102: real time      4.9249

 eigenvalue-minimisations  :   384
 total energy-change (2. order) :-0.6951450E-06  (-0.2449553E-08)
 number of electron     240.0000000 magnetization 
 augmentation part        5.6070824 magnetization 

 Broyden mixing:
  rms(total) = 0.15453E-04    rms(broyden)= 0.13596E-04
  rms(prec ) = 0.17223E-04
  weight for this iteration     100.00
  WARNING: grid for Broyden might be to small

 eigenvalues of (default mixing * dielectric matrix)
  average eigenvalue GAMMA=   2.6460
  9.3306  7.2100  5.7421  3.6420  2.9210  2.4804  2.4804  1.8539  1.6902  1.4572
  1.4572  1.1564  1.1564  0.9503  0.9837  0.9837  1.0666  1.0666

 Free energy of the ion-electron system (eV)
  ---------------------------------------------------
  alpha Z        PSCENC =       107.77265948
  Ewald energy   TEWEN  =     24585.34044588
  -Hartree energ DENC   =    -32012.51608555
  -exchange      EXHF   =         0.00000000
  -V(xc)+E(xc)   XCENC  =       821.92843895
  PAW double counting   =     24046.82964300   -24087.61679464
  entropy T*S    EENTRO =        -0.00000000
  eigenvalues    EBANDS =     -2821.78589204
  atomic energy  EATOM  =      8828.93359873
  Solvation  Ediel_sol  =         0.00000000
  ---------------------------------------------------
  free energy    TOTEN  =      -531.11398620 eV

  energy without entropy =     -531.11398620  energy(sigma->0) =     -531.11398620


--------------------------------------------------------------------------------------------------------




--------------------------------------- Iteration      1(  24)  ---------------------------------------


    POTLOK:  cpu time      0.1520: real time      0.1604
    SETDIJ:  cpu time      0.1839: real time      0.1840
     EDDAV:  cpu time      3.7464: real time      3.7499
       DOS:  cpu time      0.0002: real time      0.0002
    CHARGE:  cpu time      0.2441: real time      0.2444
    MIXING:  cpu time      0.0098: real time      0.0099
    --------------------------------------------
      LOOP:  cpu time      4.3365: real time      4.3488

 eigenvalue-minimisations  :   320
 total energy-change (2. order) :-0.4362300E-06  (-0.3067662E-09)
 number of electron     240.0000000 magnetization 
 augmentation part        5.6070834 magnetization 

 Broyden mixing:
  rms(total) = 0.84415E-05    rms(broyden)= 0.41618E-05
  rms(prec ) = 0.63024E-05
  weight for this iteration     100.00
  WARNING: grid for Broyden might be to small

 eigenvalues of (default mixing * dielectric matrix)
  average eigenvalue GAMMA=   2.6307
  9.3534  7.3643  5.7701  3.8335  2.9912  2.5787  2.4779  2.0548  1.9783  1.5662
  1.3287  1.3287  1.1598  1.1598  0.9603  0.9720  1.0622  1.0220  1.0220

 Free energy of the ion-electron system (eV)
  ---------------------------------------------------
  alpha Z        PSCENC =       107.77265948
  Ewald energy   TEWEN  =     24585.34044588
  -Hartree energ DENC   =    -32012.51384000
  -exchange      EXHF   =         0.00000000
  -V(xc)+E(xc)   XCENC  =       821.92837864
  PAW double counting   =     24046.86298824   -24087.65013219
  entropy T*S    EENTRO =        -0.00000000
  eigenvalues    EBANDS =     -2821.78808541
  atomic energy  EATOM  =      8828.93359873
  Solvation  Ediel_sol  =         0.00000000
  ---------------------------------------------------
  free energy    TOTEN  =      -531.11398663 eV

  energy without entropy =     -531.11398663  energy(sigma->0) =     -531.11398663


--------------------------------------------------------------------------------------------------------




--------------------------------------- Iteration      1(  25)  ---------------------------------------


    POTLOK:  cpu time      0.1525: real time      0.1611
    SETDIJ:  cpu time      0.1860: real time      0.1862
     EDDAV:  cpu time      3.7416: real time      3.7475
       DOS:  cpu time      0.0002: real time      0.0002
    CHARGE:  cpu time      0.2436: real time      0.2439
    MIXING:  cpu time      0.0109: real time      0.0109
    --------------------------------------------
      LOOP:  cpu time      4.3350: real time      4.3498

 eigenvalue-minimisations  :   320
 total energy-change (2. order) :-0.2184534E-06  ( 0.4031442E-10)
 number of electron     240.0000000 magnetization 
 augmentation part        5.6070839 magnetization 

 Broyden mixing:
  rms(total) = 0.76599E-05    rms(broyden)= 0.21765E-05
  rms(prec ) = 0.30989E-05
  weight for this iteration     100.00
  WARNING: grid for Broyden might be to small

 eigenvalues of (default mixing * dielectric matrix)
  average eigenvalue GAMMA=   2.6280
  9.4124  7.3630  5.8629  3.9879  3.3428  2.7994  2.4598  2.3196  1.9012  1.6480
  1.4621  1.4621  1.1613  1.1613  1.1344  1.1344  0.9583  0.9791  1.0045  1.0045

 Free energy of the ion-electron system (eV)
[...]
 ion   44
    1    -0.09247     0.00203     0.12400
    2    -0.01591     0.09840     0.04121
    3     0.12725     0.03578    -0.01987
 ion   45
    1    -0.17346     0.02369    -0.08847
    2    -0.00652     0.06214     0.01009
    3    -0.07898     0.00784     0.07828
 ion   46
    1     0.06915    -0.03207    -0.01590
    2     0.00968    -0.16611     0.06540
    3    -0.00744     0.06663     0.08735
 ion   47
    1     0.03424    -0.04772     0.11554
    2    -0.03649     0.02192     0.10148
    3     0.11328     0.09295    -0.05754
 ion   48
    1     0.03492     0.11730     0.00111
    2     0.14623    -0.08456    -0.01209
    3     0.01609     0.01466     0.08281
 ion   49
    1    -0.00914    -0.09923     0.05632
    2    -0.12433    -0.10584     0.06086
    3     0.04152     0.05339     0.08801
 ion   50
    1    -0.07307     0.09859     0.06999
    2     0.10024     0.00714    -0.04649
    3     0.07139    -0.03593     0.07827
 ion   51
    1     0.08029     0.11275    -0.03903
    2     0.08394    -0.04154     0.11837
    3    -0.08312     0.10121    -0.01708
 ion   52
    1    -0.19370    -0.02338     0.00306
    2    -0.02598     0.09847    -0.03301
    3     0.00558    -0.02045     0.08010
 ion   53
    1    -0.01451    -0.08895     0.05514
    2    -0.06860     0.03313    -0.01215
    3     0.12405     0.04103    -0.01731
 ion   54
    1     0.09309    -0.08113     0.04655
    2    -0.06011    -0.12185     0.07474
    3     0.02054     0.07123     0.01562
 ion   55
    1    -0.06734     0.15406     0.00461
    2     0.12549     0.02384     0.00107
    3    -0.01397    -0.01394     0.07961
 ion   56
    1     0.11024    -0.03206    -0.03860
    2     0.00022    -0.08554    -0.12861
    3    -0.03257    -0.13144    -0.04025
 ion   57
    1     0.06873    -0.00815     0.01848
    2     0.01420     0.02122    -0.13015
    3     0.02422    -0.13715    -0.08516
 ion   58
    1     0.02899    -0.04845     0.00431
    2    -0.07507     0.01087    -0.05486
    3    -0.04250    -0.12784    -0.04067
 ion   59
    1     0.09863    -0.00567    -0.05334
    2    -0.02430     0.04382    -0.06994
    3    -0.01701    -0.05648    -0.14540
 ion   60
    1     0.02493    -0.03364    -0.09948
    2    -0.03248     0.03916    -0.11385
    3    -0.09356    -0.10322    -0.08464
 
    CHARGE:  cpu time      0.2360: real time      0.2362
    FORLOC:  cpu time      0.0547: real time      0.0548
    FORNL :  cpu time      1.5841: real time      1.5855
    STRESS:  cpu time      7.1764: real time      7.1843
    FORCOR:  cpu time      0.1721: real time      0.1722
    FORHAR:  cpu time      0.0712: real time      0.0712
    MIXING:  cpu time      0.0080: real time      0.0080
    OFIELD:  cpu time      0.0000: real time      0.0000

  FORCE on cell =-STRESS in cart. coord.  units (eV):
  Direction    XX          YY          ZZ          XY          YZ          ZX
  --------------------------------------------------------------------------------------
  Alpha Z   107.77266   107.77266   107.77266
  Ewald    8195.98900  8201.64567  8187.67005    -0.57008     0.00154     1.67636
  Hartree 10672.05370 10675.86325 10664.59580    -0.67316    -0.18093     1.39275
  E(xc)    -897.87881  -897.87053  -897.88063     0.00088     0.00164     0.00087
  Local  -21616.54565-21625.86073-21600.75067     1.26094     0.17604    -3.05195
  n-local  -198.63535  -198.61831  -198.63704     0.00332     0.00495     0.00199
  augment   -21.90585   -21.90674   -21.90613    -0.00010     0.00010    -0.00009
  Kinetic  3758.74385  3758.45379  3758.78958    -0.03037    -0.06729    -0.04153
  Fock        0.00000     0.00000     0.00000     0.00000     0.00000     0.00000
  -------------------------------------------------------------------------------------
  Total      -0.40645    -0.52094    -0.34637    -0.00858    -0.06394    -0.02160
  in kB      -0.23732    -0.30417    -0.20224    -0.00501    -0.03734    -0.01261
  external pressure =       -0.25 kB  Pullay stress =        0.00 kB


 VOLUME and BASIS-vectors are now :
 -----------------------------------------------------------------------------
  energy-cutoff  :      520.00
  volume of cell :     2744.00
      direct lattice vectors                 reciprocal lattice vectors
     9.899494937 -9.899494937  0.000000000     0.050507627 -0.050507627  0.000000000
     9.899494937  9.899494937  0.000000000     0.050507627  0.050507627  0.000000000
     0.000000000  0.000000000 14.000000000     0.000000000  0.000000000  0.071428571

  length of vectors
    14.000000000 14.000000000 14.000000000     0.071428571  0.071428571  0.071428571


 FORCES acting on ions
    electron-ion (+dipol)            ewald-force                    non-local-force                 convergence-correction
 -----------------------------------------------------------------------------------------------
   -.645E+02 0.281E+03 0.282E+03   0.647E+02 -.281E+03 -.283E+03   -.236E+00 0.579E+00 0.508E+00   0.000E+00 0.000E+00 0.000E+00
   0.885E+02 0.320E+03 0.229E+03   -.887E+02 -.321E+03 -.229E+03   0.203E+00 0.703E+00 0.351E+00   0.000E+00 0.000E+00 0.000E+00
   -.532E+02 0.136E+03 0.362E+03   0.534E+02 -.136E+03 -.363E+03   -.189E+00 0.180E+00 0.767E+00   0.000E+00 0.000E+00 0.000E+00
   0.203E+03 0.199E+03 0.282E+03   -.203E+03 -.199E+03 -.283E+03   0.511E+00 0.370E+00 0.506E+00   0.000E+00 0.000E+00 0.000E+00
   0.118E+03 0.855E+02 0.362E+03   -.118E+03 -.856E+02 -.363E+03   0.268E+00 0.501E-01 0.764E+00   0.000E+00 0.000E+00 0.000E+00
   -.172E+03 0.294E+03 0.205E+03   0.172E+03 -.295E+03 -.206E+03   -.274E+00 0.598E+00 0.492E+00   0.000E+00 0.000E+00 0.000E+00
   0.995E+02 0.371E+03 0.996E+02   -.997E+02 -.372E+03 -.999E+02   0.201E+00 0.708E+00 0.310E+00   0.000E+00 0.000E+00 0.000E+00
   -.160E+03 0.328E+02 0.357E+03   0.160E+03 -.329E+02 -.358E+03   -.224E+00 0.153E+00 0.760E+00   0.000E+00 0.000E+00 0.000E+00
   0.309E+03 0.149E+03 0.204E+03   -.310E+03 -.149E+03 -.205E+03   0.549E+00 0.361E+00 0.485E+00   0.000E+00 0.000E+00 0.000E+00
   0.153E+03 -.568E+02 0.357E+03   -.154E+03 0.568E+02 -.357E+03   0.273E+00 0.740E-02 0.758E+00   0.000E+00 0.000E+00 0.000E+00
   -.147E+03 0.359E+03 0.448E+02   0.147E+03 -.360E+03 -.448E+02   -.210E+00 0.771E+00 0.538E-01   0.000E+00 0.000E+00 0.000E+00
   -.281E+02 0.399E+03 -.442E+01   0.282E+02 -.400E+03 0.439E+01   -.178E+00 0.798E+00 0.301E-01   0.000E+00 0.000E+00 0.000E+00
   -.300E+03 0.170E+03 0.197E+03   0.301E+03 -.170E+03 -.197E+03   -.619E+00 0.267E+00 0.457E+00   0.000E+00 0.000E+00 0.000E+00
   -.297E+03 0.567E+02 0.268E+03   0.297E+03 -.569E+02 -.269E+03   -.601E+00 0.229E+00 0.473E+00   0.000E+00 0.000E+00 0.000E+00
   0.224E+03 0.312E+03 -.470E+01   -.224E+03 -.312E+03 0.466E+01   0.567E+00 0.572E+00 0.329E-01   0.000E+00 0.000E+00 0.000E+00
   0.321E+03 0.210E+03 0.444E+02   -.321E+03 -.210E+03 -.444E+02   0.603E+00 0.548E+00 0.478E-01   0.000E+00 0.000E+00 0.000E+00
   -.116E+03 -.139E+03 0.350E+03   0.116E+03 0.139E+03 -.351E+03   -.114E+00 -.312E+00 0.738E+00   0.000E+00 0.000E+00 0.000E+00
   0.246E+02 -.181E+03 0.350E+03   -.245E+02 0.181E+03 -.351E+03   -.685E-01 -.324E+00 0.741E+00   0.000E+00 0.000E+00 0.000E+00
   0.354E+03 -.111E+02 0.196E+03   -.355E+03 0.112E+02 -.196E+03   0.650E+00 -.107E+00 0.462E+00   0.000E+00 0.000E+00 0.000E+00
   0.282E+03 -.104E+03 0.268E+03   -.282E+03 0.105E+03 -.269E+03   0.630E+00 -.139E+00 0.479E+00   0.000E+00 0.000E+00 0.000E+00
   -.259E+03 0.275E+03 -.652E+02   0.260E+03 -.276E+03 0.655E+02   -.528E+00 0.567E+00 -.243E+00   0.000E+00 0.000E+00 0.000E+00
   -.354E+03 0.158E+03 0.308E+02   0.355E+03 -.159E+03 -.308E+02   -.772E+00 0.238E+00 0.542E-02   0.000E+00 0.000E+00 0.000E+00
   0.137E+02 0.366E+03 -.171E+03   -.137E+02 -.367E+03 0.172E+03   -.464E-01 0.693E+00 -.417E+00   0.000E+00 0.000E+00 0.000E+00
   0.172E+03 0.312E+03 -.172E+03   -.172E+03 -.313E+03 0.172E+03   0.414E+00 0.558E+00 -.419E+00   0.000E+00 0.000E+00 0.000E+00
   -.337E+03 -.888E+02 0.201E+03   0.338E+03 0.890E+02 -.202E+03   -.731E+00 -.196E+00 0.286E+00   0.000E+00 0.000E+00 0.000E+00
   -.224E+03 -.211E+03 0.256E+03   0.224E+03 0.211E+03 -.257E+03   -.424E+00 -.524E+00 0.447E+00   0.000E+00 0.000E+00 0.000E+00
   0.381E+03 0.902E+02 -.657E+02   -.382E+03 -.904E+02 0.659E+02   0.742E+00 0.200E+00 -.251E+00   0.000E+00 0.000E+00 0.000E+00
   0.396E+03 -.435E+02 0.299E+02   -.397E+03 0.437E+02 -.299E+02   0.784E+00 -.200E+00 0.776E-02   0.000E+00 0.000E+00 0.000E+00
   0.751E+02 -.304E+03 0.256E+03   -.752E+02 0.304E+03 -.256E+03   0.777E-01 -.673E+00 0.446E+00   0.000E+00 0.000E+00 0.000E+00
   0.229E+03 -.253E+03 0.201E+03   -.229E+03 0.254E+03 -.201E+03   0.514E+00 -.556E+00 0.280E+00   0.000E+00 0.000E+00 0.000E+00
   -.229E+03 0.253E+03 -.201E+03   0.229E+03 -.254E+03 0.202E+03   -.516E+00 0.557E+00 -.284E+00   0.000E+00 0.000E+00 0.000E+00
   -.751E+02 0.304E+03 -.256E+03   0.752E+02 -.304E+03 0.256E+03   -.765E-01 0.673E+00 -.441E+00   0.000E+00 0.000E+00 0.000E+00
   -.396E+03 0.435E+02 -.299E+02   0.397E+03 -.437E+02 0.299E+02   -.780E+00 0.204E+00 -.103E-01   0.000E+00 0.000E+00 0.000E+00
   -.381E+03 -.902E+02 0.657E+02   0.382E+03 0.904E+02 -.659E+02   -.744E+00 -.197E+00 0.247E+00   0.000E+00 0.000E+00 0.000E+00
   0.224E+03 0.211E+03 -.256E+03   -.224E+03 -.211E+03 0.257E+03   0.424E+00 0.528E+00 -.451E+00   0.000E+00 0.000E+00 0.000E+00
   0.337E+03 0.888E+02 -.201E+03   -.338E+03 -.890E+02 0.202E+03   0.726E+00 0.196E+00 -.286E+00   0.000E+00 0.000E+00 0.000E+00
   -.172E+03 -.312E+03 0.172E+03   0.172E+03 0.313E+03 -.172E+03   -.414E+00 -.558E+00 0.420E+00   0.000E+00 0.000E+00 0.000E+00
   -.137E+02 -.366E+03 0.171E+03   0.137E+02 0.367E+03 -.172E+03   0.473E-01 -.690E+00 0.417E+00   0.000E+00 0.000E+00 0.000E+00
   0.354E+03 -.159E+03 -.308E+02   -.355E+03 0.159E+03 0.308E+02   0.777E+00 -.237E+00 -.693E-02   0.000E+00 0.000E+00 0.000E+00
   0.259E+03 -.275E+03 0.652E+02   -.260E+03 0.276E+03 -.655E+02   0.530E+00 -.563E+00 0.242E+00   0.000E+00 0.000E+00 0.000E+00
   -.282E+03 0.105E+03 -.268E+03   0.282E+03 -.105E+03 0.269E+03   -.630E+00 0.138E+00 -.480E+00   0.000E+00 0.000E+00 0.000E+00
   -.354E+03 0.111E+02 -.196E+03   0.355E+03 -.112E+02 0.196E+03   -.653E+00 0.105E+00 -.464E+00   0.000E+00 0.000E+00 0.000E+00
   -.246E+02 0.181E+03 -.350E+03   0.245E+02 -.181E+03 0.350E+03   0.707E-01 0.322E+00 -.734E+00   0.000E+00 0.000E+00 0.000E+00
   0.116E+03 0.139E+03 -.350E+03   -.116E+03 -.139E+03 0.351E+03   0.116E+00 0.314E+00 -.739E+00   0.000E+00 0.000E+00 0.000E+00
   -.321E+03 -.210E+03 -.443E+02   0.321E+03 0.210E+03 0.444E+02   -.603E+00 -.549E+00 -.480E-01   0.000E+00 0.000E+00 0.000E+00
   -.224E+03 -.312E+03 0.473E+01   0.224E+03 0.312E+03 -.470E+01   -.566E+00 -.570E+00 -.352E-01   0.000E+00 0.000E+00 0.000E+00
   0.297E+03 -.567E+02 -.268E+03   -.297E+03 0.569E+02 0.269E+03   0.605E+00 -.228E+00 -.477E+00   0.000E+00 0.000E+00 0.000E+00
   0.300E+03 -.170E+03 -.197E+03   -.301E+03 0.170E+03 0.197E+03   0.614E+00 -.265E+00 -.458E+00   0.000E+00 0.000E+00 0.000E+00
   0.281E+02 -.399E+03 0.446E+01   -.282E+02 0.400E+03 -.443E+01   0.177E+00 -.796E+00 -.299E-01   0.000E+00 0.000E+00 0.000E+00
   0.147E+03 -.359E+03 -.448E+02   -.147E+03 0.360E+03 0.448E+02   0.212E+00 -.774E+00 -.502E-01   0.000E+00 0.000E+00 0.000E+00
   -.153E+03 0.568E+02 -.357E+03   0.154E+03 -.568E+02 0.357E+03   -.273E+00 -.702E-02 -.759E+00   0.000E+00 0.000E+00 0.000E+00
   -.309E+03 -.149E+03 -.204E+03   0.310E+03 0.149E+03 0.205E+03   -.546E+00 -.361E+00 -.483E+00   0.000E+00 0.000E+00 0.000E+00
   0.160E+03 -.328E+02 -.357E+03   -.160E+03 0.329E+02 0.358E+03   0.220E+00 -.156E+00 -.760E+00   0.000E+00 0.000E+00 0.000E+00
   -.995E+02 -.372E+03 -.995E+02   0.997E+02 0.372E+03 0.998E+02   -.200E+00 -.712E+00 -.311E+00   0.000E+00 0.000E+00 0.000E+00
   0.172E+03 -.294E+03 -.205E+03   -.172E+03 0.295E+03 0.206E+03   0.271E+00 -.598E+00 -.490E+00   0.000E+00 0.000E+00 0.000E+00
   -.118E+03 -.855E+02 -.362E+03   0.118E+03 0.856E+02 0.363E+03   -.268E+00 -.507E-01 -.765E+00   0.000E+00 0.000E+00 0.000E+00
   -.203E+03 -.199E+03 -.282E+03   0.203E+03 0.199E+03 0.283E+03   -.510E+00 -.372E+00 -.506E+00   0.000E+00 0.000E+00 0.000E+00
   0.532E+02 -.136E+03 -.362E+03   -.534E+02 0.136E+03 0.363E+03   0.190E+00 -.185E+00 -.763E+00   0.000E+00 0.000E+00 0.000E+00
   -.885E+02 -.320E+03 -.229E+03   0.887E+02 0.321E+03 0.229E+03   -.203E+00 -.703E+00 -.346E+00   0.000E+00 0.000E+00 0.000E+00
   0.645E+02 -.281E+03 -.282E+03   -.647E+02 0.281E+03 0.283E+03   0.234E+00 -.583E+00 -.504E+00   0.000E+00 0.000E+00 0.000E+00
 -----------------------------------------------------------------------------------------------
   -.141E-02 0.207E-02 0.272E-02   0.227E-12 -.114E-11 0.568E-13   0.140E-02 -.207E-02 -.272E-02   0.000E+00 0.000E+00 0.000E+00
 
 
 POSITION                                       TOTAL-FORCE (eV/Angst)
 -----------------------------------------------------------------------------------
     10.42023     -2.42627      4.45522        -0.004201     -0.001350      0.004395
      9.09532     -2.77931      4.93611         0.002678      0.003013     -0.003652
     10.30469     -1.20278      3.68020         0.007216     -0.003271      0.001550
      8.16126     -1.77443      4.45770         0.001441      0.000487      0.002212
      8.90891     -0.79996      3.68159         0.000815      0.001014      0.001419
     11.53877     -2.63660      5.26891        -0.006628      0.008414      0.006476
      8.93814     -3.32864      6.21292        -0.007003     -0.006825      0.001192
     11.31206     -0.23461      3.74830         0.002403      0.000051     -0.002640
      7.10459     -1.35661      5.27376         0.007031      0.003608      0.001270
      8.57290      0.55629      3.75075        -0.000831     -0.003277     -0.003048
     11.37502     -3.20713      6.59498         0.000377     -0.001331      0.009860
     10.09936     -3.54728      7.05812         0.000260      0.008067     -0.002784
     12.58477     -1.63056      5.33979        -0.003269      0.002866     -0.004384
     12.47300     -0.45254      4.59402         0.007639      0.007971     -0.007965
      7.84050     -2.89495      7.06048         0.001118     -0.000083     -0.000995
      6.94101     -1.92760      6.59978         0.006546      0.003155      0.001260
     10.96301      1.17387      3.81930        -0.003621     -0.001469     -0.002715
      9.61905      1.56189      3.82038         0.003451      0.002693      0.003213
      6.75613      0.05205      5.34553        -0.007679     -0.000977      0.003616
      7.47625      0.99032      4.59866        -0.009526     -0.003457     -0.002550
     12.32037     -2.55417      7.48471        -0.005082     -0.000623     -0.000005
     13.06789     -1.57952      6.70895        -0.000678     -0.003284     -0.003025
      9.71958     -3.24764      8.42821        -0.000452      0.003934     -0.000095
      8.32343     -2.84470      8.42985         0.008773      0.001738     -0.003409
     12.84156      0.82145      5.18743         0.001313     -0.004541     -0.004761
     11.90834      1.82652      4.70863        -0.001015      0.005052      0.003857
      6.49117     -0.87174      7.49077        -0.003885      0.000682     -0.007327
      6.37620      0.35151      6.71548         0.002863      0.004973     -0.002324
      9.16861      2.61767      4.71123         0.000074     -0.001793      0.002787
      7.84399      2.26418      5.19232         0.002226      0.001901     -0.006326
     11.95463     -2.26546      8.80365        -0.003292      0.000183      0.002022
     10.62979     -2.61866      9.28418         0.002172      0.002049      0.003043
     13.42204     -0.35282      7.28071         0.000569     -0.002019      0.000367
     13.30719      0.87040      6.50548         0.002334      0.002024      0.000428
      7.88996     -1.82800      9.28760        -0.000096     -0.000743     -0.008871
      6.95690     -0.82275      8.80872        -0.003650      0.002986      0.005324
     11.47483      2.84325      5.56618        -0.005033     -0.000191      0.003069
     10.07884      3.24640      5.56753        -0.001526     -0.003473     -0.001773
      6.73032      1.57831      7.28707         0.005983      0.004456      0.002762
      7.47802      2.55285      6.51114         0.005061      0.002853      0.000043
     12.32237     -0.99146      9.39739         0.008466      0.001494      0.000740
     13.04248     -0.05313      8.65066         0.005876     -0.000776     -0.005305
     10.17935     -1.56274     10.17470        -0.001403     -0.003606      0.004796
      8.83544     -1.17497     10.17633         0.006746      0.004315      0.005598
     12.85736      1.92644      7.39624        -0.005195     -0.004351     -0.003107
     11.95786      2.89375      6.93552        -0.001115      0.001578     -0.003929
      7.32543      0.45134      9.40197        -0.003927     -0.004197      0.006755
      7.21388      1.62937      8.65611        -0.000230     -0.002359      0.002131
      9.69905      3.54632      6.93754        -0.002171     -0.008383      0.001556
      8.42333      3.20618      7.40060         0.000545     -0.001688     -0.006448
     11.22556     -0.55724     10.24486        -0.001642      0.003454      0.003404
     12.69382      1.35556      8.72214        -0.005356     -0.003701      0.002112
      8.48666      0.23366     10.24730        -0.008658     -0.004517      0.002189
     10.86029      3.32788      7.78284         0.007706      0.006006     -0.005806
      8.25986      2.63551      8.72666         0.001226     -0.007658     -0.007054
     10.88958      0.79908     10.31403        -0.001391     -0.001837     -0.002038
     11.63717      1.77361      9.53802         0.001319     -0.002964     -0.001016
      9.49385      1.20195     10.31514        -0.005437     -0.000986      0.002333
     10.70317      2.77848      9.05942        -0.001084     -0.004059      0.010081
      9.37841      2.42539      9.54013         0.000847     -0.001227      0.001493
 -----------------------------------------------------------------------------------
    total drift:                               -0.000011     -0.000001     -0.000003


--------------------------------------------------------------------------------------------------------



  FREE ENERGIE OF THE ION-ELECTRON SYSTEM (eV)
  ---------------------------------------------------
  free  energy   TOTEN  =      -531.11936059 eV

  energy  without entropy=     -531.11936059  energy(sigma->0) =     -531.11936059
 


--------------------------------------------------------------------------------------------------------


    POTLOK:  cpu time      0.3451: real time      0.3454


--------------------------------------------------------------------------------------------------------


     LOOP+:  cpu time   1633.6209: real time   1635.9979
    4ORBIT:  cpu time      0.0000: real time      0.0000

 total amount of memory used by VASP MPI-rank0   230629. kBytes
=======================================================================

   base      :      30000. kBytes
   nonl-proj :      75661. kBytes
   fftplans  :      52487. kBytes
   grid      :      66348. kBytes
   one-center:        184. kBytes
   wavefun   :       5949. kBytes
 
  
  
 General timing and accounting informations for this job:
 ========================================================
  
                  Total CPU time used (sec):     1640.980
                            User time (sec):     1627.183
                          System time (sec):       13.797
                         Elapsed time (sec):     1643.793
  
                   Maximum memory used (kb):      536320.
                   Average memory used (kb):          N/A
  
                          Minor page faults:       993848
                          Major page faults:           18
                 Voluntary context switches:        17981
