 vasp.6.4.3 19Mar24 (build Jun 01 2024 10:57:29) complex                        
  
 executed on             LinuxIFC date 2026.01.16  01:55:41
 running   32 mpi-ranks, on    1 nodes
 distrk:  each k-point on   32 cores,    1 groups
 distr:  one band on NCORE=   1 cores,   32 groups


--------------------------------------------------------------------------------------------------------


 INCAR:
   SYSTEM = C60 BEC example8 L-14 my
   ENCUT = 520
   PREC = Accurate
   EDIFF = 1E-8
   NELM = 200
   ALGO = Normal
   LREAL = .FALSE.
   ADDGRID = .TRUE.
   LASPH = .TRUE.
   ISMEAR = 0
   SIGMA = 0.05
   NSW = 0
   IBRION = -1
   ISYM = 0
   LCALCEPS = .TRUE.
   LPEAD = .TRUE.
   LWAVE = .FALSE.
   LCHARG = .FALSE.
   EFIELD_PEAD = 0.0100 -0.1414 0.0100

 POTCAR:    PAW_PBE C 08Apr2002                   
 -----------------------------------------------------------------------------
|                                                                             |
|           W    W    AA    RRRRR   N    N  II  N    N   GGGG   !!!           |
|           W    W   A  A   R    R  NN   N  II  NN   N  G    G  !!!           |
|           W    W  A    A  R    R  N N  N  II  N N  N  G       !!!           |
|           W WW W  AAAAAA  RRRRR   N  N N  II  N  N N  G  GGG   !            |
|           WW  WW  A    A  R   R   N   NN  II  N   NN  G    G                |
|           W    W  A    A  R    R  N    N  II  N    N   GGGG   !!!           |
|                                                                             |
|     For optimal performance we recommend to set                             |
|       NCORE = 2 up to number-of-cores-per-socket                            |
|     NCORE specifies how many cores store one orbital (NPAR=cpu/NCORE).      |
|     This setting can greatly improve the performance of VASP for DFT.       |
|     The default, NCORE=1 might be grossly inefficient on modern             |
|     multi-core architectures or massively parallel machines. Do your        |
|     own testing! More info at https://www.vasp.at/wiki/index.php/NCORE      |
|     Unfortunately you need to use the default for GW and RPA                |
|     calculations (for HF NCORE is supported but not extensively tested      |
|     yet).                                                                   |
|                                                                             |
 -----------------------------------------------------------------------------

 POTCAR:    PAW_PBE C 08Apr2002                   
   VRHFIN =C: s2p2                                                                                  
   LEXCH  = PE                                                                                      
   EATOM  =   147.1560 eV,   10.8157 Ry                                                             
                                                                                                    
   TITEL  = PAW_PBE C 08Apr2002                                                                     
   LULTRA =        F    use ultrasoft PP ?                                                          
   IUNSCR =        1    unscreen: 0-lin 1-nonlin 2-no                                               
   RPACOR =    1.200    partial core radius                                                         
   POMASS =   12.011; ZVAL   =    4.000    mass and valenz                                          
   RCORE  =    1.500    outmost cutoff radius                                                       
   RWIGS  =    1.630; RWIGS  =    0.863    wigner-seitz radius (au A)                               
   ENMAX  =  400.000; ENMIN  =  300.000 eV                                                          
   ICORE  =        2    local potential                                                             
   LCOR   =        T    correct aug charges                                                         
   LPAW   =        T    paw PP                                                                      
   EAUG   =  644.873                                                                                
   DEXC   =    0.000                                                                                
   RMAX   =    1.529    core radius for proj-oper                                                   
   RAUG   =    1.300    factor for augmentation sphere                                              
   RDEP   =    1.501    radius for radial grids                                                     
   RDEPT  =    1.300    core radius for aug-charge                                                  
                                                                                                    
   Atomic configuration                                                                             
    4 entries                                                                                       
     n  l   j            E        occ.                                                              
     1  0  0.50      -273.3789   2.0000                                                             
     2  0  0.50       -13.7508   2.0000                                                             
     2  1  0.50        -5.2854   2.0000                                                             
     3  2  1.50        -5.4423   0.0000                                                             
   Description                                                                                      
     l       E           TYP  RCUT    TYP  RCUT                                                     
     0    -13.7508458     23  1.200                                                                 
     0     -8.2022199     23  1.200                                                                 
     1     -5.2854383     23  1.500                                                                 
     1     34.0145650     23  1.500                                                                 
     2     -5.4423304      7  1.500                                                                 
  local pseudopotential read in
  partial core-charges read in
  partial kinetic energy density read in
  atomic valenz-charges read in
  non local Contribution for L=           0  read in
    real space projection operators read in
  non local Contribution for L=           0  read in
    real space projection operators read in
  non local Contribution for L=           1  read in
    real space projection operators read in
  non local Contribution for L=           1  read in
    real space projection operators read in
    PAW grid and wavefunctions read in
 
   number of l-projection  operators is LMAX  =           4
   number of lm-projection operators is LMMAX =           8
 
 -----------------------------------------------------------------------------
|                                                                             |
|               ----> ADVICE to this user running VASP <----                  |
|                                                                             |
|     You have a (more or less) 'large supercell' and for larger cells it     |
|     might be more efficient to use real-space projection operators.         |
|     Therefore, try LREAL= Auto in the INCAR file.                           |
|     Mind: For very accurate calculation, you might also keep the            |
|     reciprocal projection scheme (i.e. LREAL=.FALSE.).                      |
|                                                                             |
 -----------------------------------------------------------------------------

  PAW_PBE C 08Apr2002                   :
 energy of atom  1       EATOM= -147.1560
 kinetic energy error for atom=    0.0071 (will be added to EATOM!!)
 
 
 POSCAR: C60 | isolated, centered, L=14.0 Å, vac
  positions in direct lattice
  No initial velocities read in


 exchange-correlation table for PE
   RHO(1)=    0.500       N(1)  =     2000
   RHO(2)=  100.500       N(2)  =     4000
 


--------------------------------------------------------------------------------------------------------


 ion  position               nearest neighbor table
   1  0.649  0.404  0.318-   6 1.40   3 1.45   2 1.45
   2  0.600  0.319  0.353-   7 1.40   4 1.45   1 1.45
   3  0.581  0.460  0.263-   8 1.40   5 1.45   1 1.45
   4  0.502  0.323  0.318-   9 1.40   5 1.45   2 1.45
   5  0.490  0.410  0.263-  10 1.40   3 1.45   4 1.45
   6  0.716  0.450  0.376-   1 1.40  11 1.45  13 1.45
   7  0.620  0.283  0.444-   2 1.40  12 1.45  15 1.45
   8  0.583  0.559  0.268-   3 1.40  14 1.45  17 1.45
   9  0.427  0.290  0.377-   4 1.40  19 1.45  16 1.45
  10  0.405  0.461  0.268-   5 1.40  20 1.45  18 1.45
  11  0.737  0.413  0.471-  12 1.40   6 1.45  21 1.45
  12  0.689  0.331  0.504-  11 1.40   7 1.45  23 1.45
  13  0.718  0.553  0.381-  14 1.40  22 1.45   6 1.45
  14  0.653  0.607  0.328-  13 1.40   8 1.45  25 1.45
  15  0.542  0.250  0.504-  16 1.40  24 1.45   7 1.45
  16  0.448  0.253  0.471-  15 1.40  27 1.45   9 1.45
  17  0.494  0.613  0.273-  18 1.40  26 1.45   8 1.45
  18  0.407  0.565  0.273-  17 1.40  10 1.45  29 1.45
  19  0.339  0.344  0.382-  20 1.40  28 1.45   9 1.45
  20  0.328  0.428  0.328-  19 1.40  10 1.45  30 1.45
  21  0.751  0.493  0.535-  31 1.40  22 1.45  11 1.45
  22  0.740  0.580  0.479-  33 1.40  21 1.45  13 1.45
  23  0.655  0.327  0.602-  32 1.40  12 1.45  24 1.45
  24  0.564  0.277  0.602-  35 1.40  15 1.45  23 1.45
  25  0.607  0.690  0.371-  34 1.40  26 1.45  14 1.45
  26  0.509  0.694  0.336-  37 1.40  25 1.45  17 1.45
  27  0.372  0.284  0.535-  36 1.40  28 1.45  16 1.45
  28  0.304  0.340  0.480-  39 1.40  27 1.45  19 1.45
  29  0.331  0.595  0.337-  38 1.40  30 1.45  18 1.45
  30  0.282  0.511  0.371-  40 1.40  20 1.45  29 1.45
  31  0.718  0.489  0.629-  21 1.40  41 1.45  32 1.45
  32  0.669  0.405  0.663-  23 1.40  31 1.45  43 1.45
  33  0.696  0.660  0.520-  22 1.40  34 1.45  42 1.45
  34  0.628  0.716  0.465-  25 1.40  33 1.45  45 1.45
  35  0.491  0.306  0.663-  24 1.40  44 1.45  36 1.45
  36  0.393  0.310  0.629-  27 1.40  35 1.45  47 1.45
  37  0.436  0.723  0.398-  26 1.40  46 1.45  38 1.45
  38  0.345  0.673  0.398-  29 1.40  49 1.45  37 1.45
  39  0.260  0.420  0.521-  28 1.40  48 1.45  40 1.45
  40  0.249  0.507  0.465-  30 1.40  39 1.45  50 1.45
  41  0.672  0.572  0.671-  42 1.40  51 1.45  31 1.45
  42  0.661  0.656  0.618-  41 1.40  33 1.45  52 1.45
  43  0.593  0.435  0.727-  44 1.40  51 1.45  32 1.45
  44  0.506  0.387  0.727-  43 1.40  35 1.45  53 1.45
  45  0.552  0.747  0.528-  46 1.40  52 1.45  34 1.45
  46  0.458  0.750  0.495-  45 1.40  37 1.45  54 1.45
  47  0.347  0.393  0.672-  48 1.40  53 1.45  36 1.45
  48  0.282  0.447  0.618-  47 1.40  39 1.45  55 1.45
  49  0.311  0.669  0.496-  50 1.40  54 1.45  38 1.45
  50  0.264  0.587  0.529-  49 1.40  55 1.45  40 1.45
  51  0.595  0.539  0.732-  56 1.40  41 1.45  43 1.45
  52  0.573  0.710  0.623-  57 1.40  45 1.45  42 1.45
  53  0.417  0.440  0.732-  58 1.40  47 1.45  44 1.45
  54  0.380  0.717  0.556-  59 1.40  49 1.45  46 1.45
  55  0.284  0.550  0.623-  60 1.40  50 1.45  48 1.45
  56  0.510  0.590  0.737-  51 1.40  58 1.45  57 1.45
  57  0.498  0.677  0.681-  52 1.40  56 1.45  59 1.45
  58  0.419  0.540  0.737-  53 1.40  56 1.45  60 1.45
  59  0.400  0.681  0.647-  54 1.40  60 1.45  57 1.45
  60  0.351  0.596  0.681-  55 1.40  59 1.45  58 1.45
 

IMPORTANT INFORMATION: All symmetrisations will be switched off!
NOSYMM: (Re-)initialisation of all symmetry stuff for point group C_1.


----------------------------------------------------------------------------------------

                                     Primitive cell                                     

  volume of cell :    2744.0000

  direct lattice vectors                    reciprocal lattice vectors
    14.000000000  0.000000000  0.000000000     0.071428571  0.000000000  0.000000000
     0.000000000  9.899494937 -9.899494937     0.000000000  0.050507627 -0.050507627
     0.000000000  9.899494937  9.899494937     0.000000000  0.050507627  0.050507627

  length of vectors
    14.000000000 14.000000000 14.000000000     0.071428571  0.071428571  0.071428571

  position of ions in fractional coordinates (direct lattice)
     0.648846297  0.403755720  0.318229930
     0.599759418  0.319006451  0.352579141
     0.581214867  0.459715760  0.262871689
     0.501827740  0.322583737  0.318406897
     0.490371812  0.409563572  0.262970726
     0.715964597  0.449627468  0.376350615
     0.619565770  0.283322667  0.443779792
     0.583194916  0.559495909  0.267735791
     0.427355172  0.290316628  0.376697176
     0.404899942  0.461093436  0.267910517
     0.736509976  0.412540453  0.471069816
     0.689259118  0.330929882  0.504151426
     0.717982347  0.553271002  0.381413898
     0.652838375  0.607124448  0.328144300
     0.542222218  0.249788057  0.504319797
     0.447932353  0.253215088  0.471412596
     0.494426259  0.613005467  0.272807192
     0.406947807  0.564722693  0.272884160
     0.338607034  0.343865235  0.381823353
     0.327588766  0.427626345  0.328475588
     0.751277685  0.493267774  0.534622278
     0.739806195  0.580250170  0.479211055
     0.654943088  0.326882400  0.602014685
     0.564075845  0.276717303  0.602132414
     0.607107183  0.690086333  0.370530783
     0.509209007  0.693714954  0.336330545
     0.371883226  0.283823690  0.535054914
     0.304292831  0.339800467  0.479676966
     0.330872211  0.595297165  0.336516754
     0.281823266  0.510539506  0.370880212
     0.718223068  0.489376590  0.628831996
     0.669147385  0.404623268  0.663155726
     0.695735641  0.660095243  0.520050836
     0.628153146  0.716076396  0.464676993
     0.490831425  0.306175080  0.663399729
     0.392931172  0.309821376  0.629194218
     0.435960504  0.723172250  0.397584165
     0.345090119  0.673026114  0.397680484
     0.260216127  0.419649363  0.520504744
     0.248758320  0.506635557  0.465081746
     0.672450297  0.572297374  0.671242330
     0.661428159  0.656061342  0.617904155
     0.593064847  0.435204741  0.726764416
     0.505601742  0.386912206  0.726880734
     0.552094808  0.746695097  0.528303146
     0.457806378  0.750119696  0.495394333
     0.347193934  0.392786018  0.671569253
     0.282060326  0.446651226  0.618293655
     0.310759811  0.668992112  0.495538292
     0.263505641  0.587378694  0.528614584
     0.595121498  0.538831695  0.731775987
     0.572668742  0.709600964  0.623010104
     0.416839288  0.440442638  0.731950245
     0.380444356  0.716610770  0.555917352
     0.284072451  0.550299078  0.623332590
     0.509647233  0.590366368  0.736716258
     0.498184532  0.677346679  0.681286888
     0.418804147  0.540219676  0.736795970
     0.400257455  0.680926465  0.647101716
     0.351180562  0.596181860  0.681438200

  ion indices of the primitive-cell ions
   primitive index   ion index
                 1           1
                 2           2
                 3           3
                 4           4
                 5           5
                 6           6
                 7           7
                 8           8
                 9           9
                10          10
                11          11
                12          12
                13          13
                14          14
                15          15
                16          16
                17          17
                18          18
                19          19
                20          20
                21          21
                22          22
                23          23
                24          24
                25          25
                26          26
                27          27
                28          28
                29          29
                30          30
                31          31
                32          32
                33          33
                34          34
                35          35
                36          36
                37          37
                38          38
                39          39
                40          40
                41          41
                42          42
                43          43
                44          44
                45          45
                46          46
                47          47
                48          48
                49          49
                50          50
                51          51
                52          52
                53          53
                54          54
                55          55
                56          56
                57          57
                58          58
                59          59
                60          60

----------------------------------------------------------------------------------------

 
 
 KPOINTS: Automatic mesh                          

Automatic generation of k-mesh.
 Grid dimensions read from file:
 generate k-points for:    1    1    1

 Generating k-lattice:

  Cartesian coordinates                     Fractional coordinates (reciprocal lattice)
     0.071428571  0.000000000  0.000000000     1.000000000  0.000000000  0.000000000
     0.000000000  0.050507627 -0.050507627     0.000000000  1.000000000 -0.000000000
     0.000000000  0.050507627  0.050507627     0.000000000 -0.000000000  1.000000000

  Length of vectors
     0.071428571  0.071428571  0.071428571

  Shift w.r.t. Gamma in fractional coordinates (k-lattice)
     0.000000000  0.000000000  0.000000000

 
 Subroutine IBZKPT returns following result:
 ===========================================
 
 Found      1 irreducible k-points:
 
 Following reciprocal coordinates:
            Coordinates               Weight
  0.000000  0.000000  0.000000      1.000000
 
 Following cartesian coordinates:
            Coordinates               Weight
  0.000000  0.000000  0.000000      1.000000
 
 
 Subroutine IBZKPT_HF returns following result:
 ==============================================
 
 Found      1 k-points in 1st BZ
 the following      1 k-points will be used (e.g. in the exchange kernel)
 Following reciprocal coordinates:   # in IRBZ
  0.000000  0.000000  0.000000    1.00000000   1 t-inv F


--------------------------------------------------------------------------------------------------------




 Dimension of arrays:
   k-points           NKPTS =      1   k-points in BZ     NKDIM =      1   number of bands    NBANDS=    160
   number of dos      NEDOS =    301   number of ions     NIONS =     60
   non local maximal  LDIM  =      4   non local SUM 2l+1 LMDIM =      8
   total plane-waves  NPLWV = ******
   max r-space proj   IRMAX =      1   max aug-charges    IRDMAX=  43535
   dimension x,y,z NGX =   108 NGY =  108 NGZ =  108
   dimension x,y,z NGXF=   216 NGYF=  216 NGZF=  216
   support grid    NGXF=   432 NGYF=  432 NGZF=  432
   ions per type =              60
   NGX,Y,Z   is equivalent  to a cutoff of  12.82, 12.82, 12.82 a.u.
   NGXF,Y,Z  is equivalent  to a cutoff of  25.65, 25.65, 25.65 a.u.

 SYSTEM =  C60 BEC example8 L-14 my                
 POSCAR =  C60 | isolated, centered, L=14.0 Å, vac

 Startparameter for this run:
   NWRITE =      2    write-flag & timer
   PREC   = accura    normal or accurate (medium, high low for compatibility)
   ISTART =      0    job   : 0-new  1-cont  2-samecut
   ICHARG =      2    charge: 1-file 2-atom 10-const
   ISPIN  =      1    spin polarized calculation?
   LNONCOLLINEAR =      F non collinear calculations
   LSORBIT =      F    spin-orbit coupling
   INIWAV =      1    electr: 0-lowe 1-rand  2-diag
   LASPH  =      T    aspherical Exc in radial PAW
 Electronic Relaxation 1
   ENCUT  =  520.0 eV  38.22 Ry    6.18 a.u.  26.03 26.03 26.03*2*pi/ulx,y,z
   ENINI  =  520.0     initial cutoff
   ENAUG  =  644.9 eV  augmentation charge cutoff
   NELM   =    200;   NELMIN=  2; NELMDL= -5     # of ELM steps 
   EDIFF  = 0.1E-07   stopping-criterion for ELM
   LREAL  =      F    real-space projection
   NLSPLINE    = F    spline interpolate recip. space projectors
   LCOMPAT=      F    compatible to vasp.4.4
   GGA_COMPAT  = T    GGA compatible to vasp.4.4-vasp.4.6
   LMAXPAW     = -100 max onsite density
   LMAXMIX     =    2 max onsite mixed and CHGCAR
   VOSKOWN=      0    Vosko Wilk Nusair interpolation
   ROPT   =    0.00000
 Ionic relaxation
   EDIFFG = 0.1E-06   stopping-criterion for IOM
   NSW    =      0    number of steps for IOM
   NBLOCK =      1;   KBLOCK =      1    inner block; outer block 
   IBRION =     -1    ionic relax: 0-MD 1-quasi-New 2-CG
   NFREE  =      0    steps in history (QN), initial steepest desc. (CG)
   ISIF   =      2    stress and relaxation
   IWAVPR =     10    prediction:  0-non 1-charg 2-wave 3-comb
   ISYM   =      0    0-nonsym 1-usesym 2-fastsym
   LCORR  =      T    Harris-Foulkes like correction to forces

   POTIM  = 0.5000    time-step for ionic-motion
   TEIN   =    0.0    initial temperature
   TEBEG  =    0.0;   TEEND  =   0.0 temperature during run
   SMASS  =  -3.00    Nose mass-parameter (am)
   estimated Nose-frequenzy (Omega)   =  0.10E-29 period in steps = 0.13E+47 mass=  -0.448E-26a.u.
   SCALEE = 1.0000    scale energy and forces
   NPACO  =    256;   APACO  = 10.0  distance and # of slots for P.C.
   PSTRESS=    0.0 pullay stress

  Mass of Ions in am
   POMASS =  12.01
  Ionic Valenz
   ZVAL   =   4.00
  Atomic Wigner-Seitz radii
   RWIGS  =  -1.00
  virtual crystal weights 
   VCA    =   1.00
   NELECT =     240.0000    total number of electrons
   NUPDOWN=      -1.0000    fix difference up-down

 DOS related values:
   EMIN   =  10.00;   EMAX   =-10.00  energy-range for DOS
   EFERMI =   0.00;   METHOD = LEGACY      
   ISMEAR =     0;   SIGMA  =   0.05  broadening in eV -4-tet -1-fermi 0-gaus

 Electronic relaxation 2 (details)
   IALGO  =     38    algorithm
   LDIAG  =      T    sub-space diagonalisation (order eigenvalues)
   LSUBROT=      F    optimize rotation matrix (better conditioning)
   TURBO    =      0    0=normal 1=particle mesh
   IRESTART =      0    0=no restart 2=restart with 2 vectors
   NREBOOT  =      0    no. of reboots
   NMIN     =      0    reboot dimension
   EREF     =   0.00    reference energy to select bands
   IMIX   =      4    mixing-type and parameters
     AMIX     =   0.40;   BMIX     =  1.00
     AMIX_MAG =   1.60;   BMIX_MAG =  1.00
     AMIN     =   0.10
     WC   =   100.;   INIMIX=   1;  MIXPRE=   1;  MAXMIX= -45

 Intra band minimization:
   WEIMIN = 0.0000     energy-eigenvalue tresh-hold
   EBREAK =  0.16E-10  absolut break condition
   DEPER  =   0.30     relativ break condition  

   TIME   =   0.40     timestep for ELM

  volume/ion in A,a.u.               =      45.73       308.62
  Fermi-wavevector in a.u.,A,eV,Ry     =   0.726692  1.373249  7.184987  0.528082
  Thomas-Fermi vector in A             =   1.817729
 
 Write flags
   LWAVE        =      F    write WAVECAR
   LDOWNSAMPLE  =      F    k-point downsampling of WAVECAR
   LCHARG       =      F    write CHGCAR
   LVTOT        =      F    write LOCPOT, total local potential
   LVHAR        =      F    write LOCPOT, Hartree potential only
   WRT_POTENTIAL= false  ! write potential to hdf5 file
   LELF         =      F    write electronic localiz. function (ELF)
   LORBIT       =      0    0 simple, 1 ext, 2 COOP (PROOUT), +10 PAW based schemes


 Dipole corrections
   LMONO      =      F    monopole corrections only (constant potential shift)
   LDIPOL     =      F    correct potential (dipole corrections)
   IDIPOL     =      0    1-x, 2-y, 3-z, 4-all directions 
   EPSILON    =  1.0000000 bulk dielectric constant
   LVACPOTAV  =      F  vacuum potentials using an averaging scheme for the charge density
   VACPOTFLAT =  0.1000000 required flatness to determine vacuum potential
 Exchange correlation treatment:
   GGA     = PE    functional components
   XC_C    = 1    coefficients multiplying the functional components
   LIBXC   =     F    Libxc                    
   VOSKOWN =     0    Vosko Wilk Nusair interpolation
   LHFCALC =     F    Hartree Fock is set to
   LHFONE  =     F    Hartree Fock one center treatment
   AEXX    =    0.0000 exact exchange contribution

 Parameters of functionals:
   PE:
     No parameter
 
 Van der Waals corrections
   IVDW    =     0    specifies the selected vdW correction

 Linear response parameters
   LEPSILON=     F    determine dielectric tensor
   LRPA    =     F    only Hartree local field effects (RPA)
   LNABLA  =     F    use nabla operator in PAW spheres
   LVEL    =     F    velocity operator in full k-point grid
   CSHIFT  =0.1000    complex shift for real part using Kramers Kronig
   OMEGAMAX=  -1.0    maximum frequency
   DEG_THRESHOLD= 0.2000000E-02 threshold for treating states as degnerate
   RTIME   =   -0.100 relaxation time in fs
  (WPLASMAI=    0.000 imaginary part of plasma frequency in eV, 0.658/RTIME)
   DFIELD  = 0.0000000 0.0000000 0.0000000 field for delta impulse in time
 
  Optional k-point grid parameters
   LKPOINTS_OPT  =     F    use optional k-point grid
   KPOINTS_OPT_MODE=     1    mode for optional k-point grid
 
 Orbital magnetization related:
   ORBITALMAG=     F  switch on orbital magnetization
   LCHIMAG   =     F  perturbation theory with respect to B field
   DQ        =  0.001000  dq finite difference perturbation B field
   LLRAUG    =     F  two centre corrections for induced B field
   LBONE     =     F  B-component reconstruction in AE one-centre
   LVGVCALC  =     T  calculate vGv susceptibility
   LVGVAPPL  =     F  apply vGv susceptibility instead of pGv for G=0

 PEAD related settings:
   LPEAD      =     T    switch on PEAD
   IPEAD      =     4    finite difference order for dpsi/dk
   LCALCPOL   =     F    calculate macroscopic polarization
   LCALCEPS   =     T    calculate dielectric tensor
   EFIELD_PEAD=    0.0100   -0.1414    0.0100
   SKIP_EDOTP =     F
   LRPA       =     F
   SKIP_SCF   =     F
 Random number generation:
   RANDOM_GENERATOR = DEFAULT
   PCG_SEED         = not used


--------------------------------------------------------------------------------------------------------


 Static calculation
 charge density and potential will be updated during run
 non-spin polarized calculation
 Variant of blocked Davidson
 Davidson routine will perform the subspace rotation
 perform sub-space diagonalisation
    after iterative eigenvector-optimisation
 modified Broyden-mixing scheme, WC =      100.0
 initial mixing is a Kerker type mixing with AMIX =  0.4000 and BMIX =      1.0000
 Hartree-type preconditioning will be used
 using additional bands           40
 reciprocal scheme for non local part
 use partial core corrections
 calculate Harris-corrections to forces 
   (improved forces if not selfconsistent)
 use gradient corrections 
 use of overlap-Matrix (Vanderbilt PP)
 Gauss-broadening in eV      SIGMA  =   0.05


--------------------------------------------------------------------------------------------------------


  energy-cutoff  :      520.00
  volume of cell :     2744.00
      direct lattice vectors                 reciprocal lattice vectors
     14.000000000   0.000000000   0.000000000      0.071428571   0.000000000   0.000000000
      0.000000000   9.899494937  -9.899494937      0.000000000   0.050507627  -0.050507627
      0.000000000   9.899494937   9.899494937      0.000000000   0.050507627   0.050507627

  length of vectors
     14.000000000  14.000000000  14.000000000      0.071428571   0.071428571   0.071428571


 
 k-points in units of 2pi/SCALE and weight: Automatic mesh                          
   0.00000000  0.00000000  0.00000000       1.000
 
 k-points in reciprocal lattice and weights: Automatic mesh                          
   0.00000000  0.00000000  0.00000000       1.000
 
 position of ions in fractional coordinates (direct lattice) 
   0.64884630  0.40375572  0.31822993
   0.59975942  0.31900645  0.35257914
   0.58121487  0.45971576  0.26287169
   0.50182774  0.32258374  0.31840690
   0.49037181  0.40956357  0.26297073
   0.71596460  0.44962747  0.37635061
   0.61956577  0.28332267  0.44377979
   0.58319492  0.55949591  0.26773579
   0.42735517  0.29031663  0.37669718
   0.40489994  0.46109344  0.26791052
   0.73650998  0.41254045  0.47106982
   0.68925912  0.33092988  0.50415143
   0.71798235  0.55327100  0.38141390
   0.65283838  0.60712445  0.32814430
   0.54222222  0.24978806  0.50431980
   0.44793235  0.25321509  0.47141260
   0.49442626  0.61300547  0.27280719
   0.40694781  0.56472269  0.27288416
   0.33860703  0.34386524  0.38182335
   0.32758877  0.42762635  0.32847559
   0.75127768  0.49326777  0.53462228
   0.73980620  0.58025017  0.47921105
   0.65494309  0.32688240  0.60201469
   0.56407584  0.27671730  0.60213241
   0.60710718  0.69008633  0.37053078
   0.50920901  0.69371495  0.33633054
   0.37188323  0.28382369  0.53505491
   0.30429283  0.33980047  0.47967697
   0.33087221  0.59529717  0.33651675
   0.28182327  0.51053951  0.37088021
   0.71822307  0.48937659  0.62883200
   0.66914738  0.40462327  0.66315573
   0.69573564  0.66009524  0.52005084
   0.62815315  0.71607640  0.46467699
   0.49083142  0.30617508  0.66339973
   0.39293117  0.30982138  0.62919422
   0.43596050  0.72317225  0.39758416
   0.34509012  0.67302611  0.39768048
   0.26021613  0.41964936  0.52050474
   0.24875832  0.50663556  0.46508175
   0.67245030  0.57229737  0.67124233
   0.66142816  0.65606134  0.61790416
   0.59306485  0.43520474  0.72676442
   0.50560174  0.38691221  0.72688073
   0.55209481  0.74669510  0.52830315
   0.45780638  0.75011970  0.49539433
   0.34719393  0.39278602  0.67156925
   0.28206033  0.44665123  0.61829365
   0.31075981  0.66899211  0.49553829
   0.26350564  0.58737869  0.52861458
   0.59512150  0.53883170  0.73177599
   0.57266874  0.70960096  0.62301010
   0.41683929  0.44044264  0.73195025
   0.38044436  0.71661077  0.55591735
   0.28407245  0.55029908  0.62333259
   0.50964723  0.59036637  0.73671626
   0.49818453  0.67734668  0.68128689
   0.41880415  0.54021968  0.73679597
   0.40025746  0.68092647  0.64710172
   0.35118056  0.59618186  0.68143820
 
 position of ions in cartesian coordinates  (Angst):
   9.08384816  7.14729329 -0.84666212
   8.39663185  6.64835816  0.33235268
   8.13700814  7.15325079 -1.94865689
   7.02558836  6.34548354 -0.04134861
   6.86520537  6.65774987 -1.45119514
  10.02350436  8.17676584 -0.72540384
   8.67392078  7.19794711  1.58844450
   8.16472882  8.18917602 -2.88827781
   5.98297241  6.60309978  0.85512379
   5.66859919  7.21677095 -1.91241333
  10.31113967  8.74729538  0.57941114
   9.64962765  8.26688318  1.71480580
  10.05175285  9.25290843 -1.70129854
   9.13973725  9.25868824 -2.76176256
   7.59111105  7.46528688  2.51973568
   6.27105294  7.17344809  2.16004512
   6.92196763  8.76909793 -3.36779110
   5.69726930  8.29188480 -2.88905407
   4.74049847  7.18395050  0.37576619
   4.58624272  7.48502726 -0.98154241
  10.51788758 10.17559237  0.40938870
  10.35728673 10.48813103 -1.00023621
   9.16920323  9.19561200  2.72367066
   7.89706183  8.70016832  3.22144525
   8.49950056 10.49957377 -3.16343855
   7.12892610 10.19693020 -3.53792515
   5.20636516  8.10648459  2.48706223
   4.26009963  8.11241269  1.38470669
   4.63221095  9.22448717 -2.56179537
   3.94552573  8.72561003 -1.38255647
  10.05512296 11.06970024  1.38053809
   9.36806339 10.57047274  2.55934076
   9.74029897 11.68285013 -1.38636890
   8.79414404 11.68886219 -2.48872712
   6.87163995  9.59830090  3.53634360
   5.50103640  9.29578011  3.16162984
   6.10344705 11.09492245 -3.22315760
   4.83126166 10.59945455 -2.72578267
   3.64302578  9.30705082  0.99841734
   3.48261648  9.61951053 -0.41136174
   9.41430415 12.31041501  0.97950509
   9.25999423 12.61161499 -0.37773688
   8.30290785 11.50290778  2.88629353
   7.07842439 11.02598757  3.36551673
   7.72932731 12.62183865 -2.16197001
   6.40928930 12.32995983 -2.52165245
   4.86071508 10.53657961  2.75981323
   3.94884457 10.54241646  1.69917335
   4.35063736 11.52826283 -1.71710521
   3.68907897 11.04776981 -0.58173501
   8.33170097 12.57837432  1.91005104
   8.01736239 13.19217652 -0.85720578
   5.83575003 11.60609742  2.88577808
   5.32622099 12.59738571 -1.59078368
   3.97701431 11.61836075  0.72299488
   7.13506126 13.13744774  1.44879000
   6.97458344 13.44978612  0.03900608
   5.86325806 12.64180992  1.94600604
   5.60360437 13.14680825 -0.33484793
   4.91652787 12.64779332  0.84399470
 


--------------------------------------------------------------------------------------------------------


 k-point     1 :   0.0000 0.0000 0.0000  plane waves:   73885

 maximum and minimum number of plane-waves per node :     73885    73885

 maximum number of plane-waves:     73885
 maximum index in each direction: 
   IXMAX=   26   IYMAX=   26   IZMAX=   26
   IXMIN=  -26   IYMIN=  -26   IZMIN=  -26


 serial   3D FFT for wavefunctions
 parallel 3D FFT for charge:
    minimum data exchange during FFTs selected (reduces bandwidth)


 total amount of memory used by VASP MPI-rank0   230629. kBytes
=======================================================================

   base      :      30000. kBytes
   nonl-proj :      75661. kBytes
   fftplans  :      52487. kBytes
   grid      :      66348. kBytes
   one-center:        184. kBytes
   wavefun   :       5949. kBytes
 
     INWAV:  cpu time      0.0000: real time      0.0000
 Broyden mixing: mesh for mixing (old mesh)
   NGX = 53   NGY = 53   NGZ = 53
  (NGX  =216   NGY  =216   NGZ  =216)
  gives a total of 148877 points

 initial charge density was supplied:
 charge density of overlapping atoms calculated
 number of electron     240.0000000 magnetization 
 keeping initial charge density in first step


--------------------------------------------------------------------------------------------------------


 Maximum index for augmentation-charges         1466 (set IRDMAX)


--------------------------------------------------------------------------------------------------------


 First call to EWALD:  gamma=   0.127
 Maximum number of real-space cells 3x 3x 3
 Maximum number of reciprocal cells 3x 3x 3

    FEWALD:  cpu time      0.0031: real time      0.0036


--------------------------------------- Ionic step        1  -------------------------------------------




--------------------------------------- Iteration      1(   1)  ---------------------------------------


    POTLOK:  cpu time      0.2629: real time      0.2636
    SETDIJ:  cpu time      0.2253: real time      0.2265
     EDDAV:  cpu time      5.1019: real time      5.1044
       DOS:  cpu time      0.0007: real time      0.0007
    --------------------------------------------
      LOOP:  cpu time      5.5907: real time      5.5953

 eigenvalue-minimisations  :   320
 total energy-change (2. order) : 0.2298061E+04  (-0.8759308E+04)
 number of electron     240.0000000 magnetization 
 augmentation part      240.0000000 magnetization 

 Free energy of the ion-electron system (eV)
  ---------------------------------------------------
  alpha Z        PSCENC =       107.77265948
  Ewald energy   TEWEN  =     24585.34044588
  -Hartree energ DENC   =    -31075.24411798
  -exchange      EXHF   =         0.00000000
  -V(xc)+E(xc)   XCENC  =       788.64363849
  PAW double counting   =      6511.32278280    -6545.48713133
  entropy T*S    EENTRO =        -0.00983771
  eigenvalues    EBANDS =      -903.21116417
  atomic energy  EATOM  =      8828.93359873
  Solvation  Ediel_sol  =         0.00000000
  ---------------------------------------------------
  free energy    TOTEN  =      2298.06087420 eV

  energy without entropy =     2298.07071191  energy(sigma->0) =     2298.06579305


--------------------------------------------------------------------------------------------------------




--------------------------------------- Iteration      1(   2)  ---------------------------------------


     EDDAV:  cpu time      7.7266: real time      7.7289
       DOS:  cpu time      0.0005: real time      0.0004
    --------------------------------------------
      LOOP:  cpu time      7.7270: real time      7.7293

 eigenvalue-minimisations  :   512
 total energy-change (2. order) :-0.2435870E+04  (-0.2365230E+04)
 number of electron     240.0000000 magnetization 
 augmentation part      240.0000000 magnetization 

 Free energy of the ion-electron system (eV)
  ---------------------------------------------------
  alpha Z        PSCENC =       107.77265948
  Ewald energy   TEWEN  =     24585.34044588
  -Hartree energ DENC   =    -31075.24411798
  -exchange      EXHF   =         0.00000000
  -V(xc)+E(xc)   XCENC  =       788.64363849
  PAW double counting   =      6511.32278280    -6545.48713133
  entropy T*S    EENTRO =        -0.00000000
  eigenvalues    EBANDS =     -3339.09050666
  atomic energy  EATOM  =      8828.93359873
  Solvation  Ediel_sol  =         0.00000000
  ---------------------------------------------------
  free energy    TOTEN  =      -137.80863059 eV

  energy without entropy =     -137.80863059  energy(sigma->0) =     -137.80863059


--------------------------------------------------------------------------------------------------------




--------------------------------------- Iteration      1(   3)  ---------------------------------------


     EDDAV:  cpu time      6.9820: real time      7.0920
       DOS:  cpu time      0.0002: real time      0.0002
    --------------------------------------------
      LOOP:  cpu time      6.9823: real time      7.0922

 eigenvalue-minimisations  :   384
 total energy-change (2. order) :-0.4160942E+03  (-0.4141908E+03)
 number of electron     240.0000000 magnetization 
 augmentation part      240.0000000 magnetization 

 Free energy of the ion-electron system (eV)
  ---------------------------------------------------
  alpha Z        PSCENC =       107.77265948
  Ewald energy   TEWEN  =     24585.34044588
  -Hartree energ DENC   =    -31075.24411798
  -exchange      EXHF   =         0.00000000
  -V(xc)+E(xc)   XCENC  =       788.64363849
  PAW double counting   =      6511.32278280    -6545.48713133
  entropy T*S    EENTRO =        -0.00000000
  eigenvalues    EBANDS =     -3755.18470273
  atomic energy  EATOM  =      8828.93359873
  Solvation  Ediel_sol  =         0.00000000
  ---------------------------------------------------
  free energy    TOTEN  =      -553.90282666 eV

  energy without entropy =     -553.90282666  energy(sigma->0) =     -553.90282666


--------------------------------------------------------------------------------------------------------




--------------------------------------- Iteration      1(   4)  ---------------------------------------


     EDDAV:  cpu time      6.2188: real time      6.2241
       DOS:  cpu time      0.0004: real time      0.0004
    --------------------------------------------
      LOOP:  cpu time      6.2192: real time      6.2245

 eigenvalue-minimisations  :   416
 total energy-change (2. order) :-0.1461511E+02  (-0.1452327E+02)
 number of electron     240.0000000 magnetization 
 augmentation part      240.0000000 magnetization 

 Free energy of the ion-electron system (eV)
  ---------------------------------------------------
  alpha Z        PSCENC =       107.77265948
  Ewald energy   TEWEN  =     24585.34044588
  -Hartree energ DENC   =    -31075.24411798
  -exchange      EXHF   =         0.00000000
  -V(xc)+E(xc)   XCENC  =       788.64363849
  PAW double counting   =      6511.32278280    -6545.48713133
  entropy T*S    EENTRO =        -0.00000000
  eigenvalues    EBANDS =     -3769.79981501
  atomic energy  EATOM  =      8828.93359873
  Solvation  Ediel_sol  =         0.00000000
  ---------------------------------------------------
  free energy    TOTEN  =      -568.51793893 eV

  energy without entropy =     -568.51793893  energy(sigma->0) =     -568.51793893


--------------------------------------------------------------------------------------------------------




--------------------------------------- Iteration      1(   5)  ---------------------------------------


     EDDAV:  cpu time      7.3816: real time      7.3851
       DOS:  cpu time      0.0003: real time      0.0002
    CHARGE:  cpu time      0.3047: real time      0.3047
    MIXING:  cpu time      0.0131: real time      0.0132
    --------------------------------------------
      LOOP:  cpu time      7.6997: real time      7.7033

 eigenvalue-minimisations  :   512
 total energy-change (2. order) :-0.4299339E+00  (-0.4292970E+00)
 number of electron     240.0000000 magnetization 
 augmentation part        6.2731871 magnetization 

 Broyden mixing:
  rms(total) = 0.33925E+01    rms(broyden)= 0.33921E+01
  rms(prec ) = 0.39059E+01
  weight for this iteration     100.00

 Free energy of the ion-electron system (eV)
  ---------------------------------------------------
  alpha Z        PSCENC =       107.77265948
  Ewald energy   TEWEN  =     24585.34044588
  -Hartree energ DENC   =    -31075.24411798
  -exchange      EXHF   =         0.00000000
  -V(xc)+E(xc)   XCENC  =       788.64363849
  PAW double counting   =      6511.32278280    -6545.48713133
  entropy T*S    EENTRO =        -0.00000000
  eigenvalues    EBANDS =     -3770.22974894
  atomic energy  EATOM  =      8828.93359873
  Solvation  Ediel_sol  =         0.00000000
  ---------------------------------------------------
  free energy    TOTEN  =      -568.94787286 eV

  energy without entropy =     -568.94787286  energy(sigma->0) =     -568.94787286


--------------------------------------------------------------------------------------------------------




--------------------------------------- Iteration      1(   6)  ---------------------------------------


    POTLOK:  cpu time      0.2394: real time      0.2441
    SETDIJ:  cpu time      0.2231: real time      0.2244
     EDDAV:  cpu time      5.0749: real time      5.0749
       DOS:  cpu time      0.0013: real time      0.0013
    CHARGE:  cpu time      0.3044: real time      0.3044
    MIXING:  cpu time      0.0099: real time      0.0099
    --------------------------------------------
      LOOP:  cpu time      5.8529: real time      5.8589

 eigenvalue-minimisations  :   320
 total energy-change (2. order) : 0.2811620E+02  (-0.2741477E+01)
 number of electron     240.0000000 magnetization 
 augmentation part        5.9826378 magnetization 

 Broyden mixing:
  rms(total) = 0.19496E+01    rms(broyden)= 0.19496E+01
  rms(prec ) = 0.21966E+01
  weight for this iteration     100.00

 eigenvalues of (default mixing * dielectric matrix)
  average eigenvalue GAMMA=   2.1632
  2.1632

 Free energy of the ion-electron system (eV)
  ---------------------------------------------------
  alpha Z        PSCENC =       107.77265948
  Ewald energy   TEWEN  =     24585.34044588
  -Hartree energ DENC   =    -31430.29158044
  -exchange      EXHF   =         0.00000000
  -V(xc)+E(xc)   XCENC  =       802.26322859
  PAW double counting   =     11758.64007835   -11797.21378255
  entropy T*S    EENTRO =        -0.00000000
  eigenvalues    EBANDS =     -3396.27632170
  atomic energy  EATOM  =      8828.93359873
  Solvation  Ediel_sol  =         0.00000000
  ---------------------------------------------------
  free energy    TOTEN  =      -540.83167368 eV

  energy without entropy =     -540.83167368  energy(sigma->0) =     -540.83167368


--------------------------------------------------------------------------------------------------------




--------------------------------------- Iteration      1(   7)  ---------------------------------------


    POTLOK:  cpu time      0.2403: real time      0.2446
    SETDIJ:  cpu time      0.2239: real time      0.2250
     EDDAV:  cpu time      6.2375: real time      6.2377
       DOS:  cpu time      0.0004: real time      0.0004
    CHARGE:  cpu time      0.3029: real time      0.3029
    MIXING:  cpu time      0.0099: real time      0.0099
    --------------------------------------------
      LOOP:  cpu time      7.0149: real time      7.0205

 eigenvalue-minimisations  :   416
 total energy-change (2. order) : 0.9571357E+01  (-0.3570707E+01)
 number of electron     240.0000000 magnetization 
 augmentation part        5.6410620 magnetization 

 Broyden mixing:
  rms(total) = 0.55850E+00    rms(broyden)= 0.55840E+00
  rms(prec ) = 0.59915E+00
  weight for this iteration     100.00

 eigenvalues of (default mixing * dielectric matrix)
  average eigenvalue GAMMA=   2.3578
  2.3578  2.3578

 Free energy of the ion-electron system (eV)
  ---------------------------------------------------
  alpha Z        PSCENC =       107.77265948
  Ewald energy   TEWEN  =     24585.34044588
  -Hartree energ DENC   =    -31861.83949617
  -exchange      EXHF   =         0.00000000
  -V(xc)+E(xc)   XCENC  =       820.01080926
  PAW double counting   =     21280.09174208   -21322.50590459
  entropy T*S    EENTRO =        -0.00000000
  eigenvalues    EBANDS =     -2969.06417135
  atomic energy  EATOM  =      8828.93359873
  Solvation  Ediel_sol  =         0.00000000
  ---------------------------------------------------
  free energy    TOTEN  =      -531.26031668 eV

  energy without entropy =     -531.26031668  energy(sigma->0) =     -531.26031668


--------------------------------------------------------------------------------------------------------




--------------------------------------- Iteration      1(   8)  ---------------------------------------


    POTLOK:  cpu time      0.2384: real time      0.2430
    SETDIJ:  cpu time      0.2244: real time      0.2243
     EDDAV:  cpu time      6.6190: real time      6.6191
       DOS:  cpu time      0.0003: real time      0.0003
    CHARGE:  cpu time      0.3041: real time      0.3041
    MIXING:  cpu time      0.0098: real time      0.0097
    --------------------------------------------
      LOOP:  cpu time      7.3959: real time      7.4004

 eigenvalue-minimisations  :   448
 total energy-change (2. order) : 0.8005903E-01  (-0.2629445E+00)
 number of electron     240.0000000 magnetization 
 augmentation part        5.6446433 magnetization 

 Broyden mixing:
  rms(total) = 0.10394E+00    rms(broyden)= 0.10393E+00
  rms(prec ) = 0.18005E+00
  weight for this iteration     100.00

 eigenvalues of (default mixing * dielectric matrix)
  average eigenvalue GAMMA=   1.8271
  2.4089  1.5362  1.5362

 Free energy of the ion-electron system (eV)
  ---------------------------------------------------
  alpha Z        PSCENC =       107.77265948
  Ewald energy   TEWEN  =     24585.34044588
  -Hartree energ DENC   =    -31883.81396702
  -exchange      EXHF   =         0.00000000
  -V(xc)+E(xc)   XCENC  =       820.22853400
  PAW double counting   =     24138.08239090   -24178.75984091
  entropy T*S    EENTRO =        -0.00000000
  eigenvalues    EBANDS =     -2948.96407869
  atomic energy  EATOM  =      8828.93359873
  Solvation  Ediel_sol  =         0.00000000
  ---------------------------------------------------
  free energy    TOTEN  =      -531.18025765 eV

  energy without entropy =     -531.18025765  energy(sigma->0) =     -531.18025765


--------------------------------------------------------------------------------------------------------




--------------------------------------- Iteration      1(   9)  ---------------------------------------


    POTLOK:  cpu time      0.2369: real time      0.2414
    SETDIJ:  cpu time      0.2238: real time      0.2238
     EDDAV:  cpu time      6.7368: real time      6.7374
       DOS:  cpu time      0.0003: real time      0.0003
    CHARGE:  cpu time      0.3040: real time      0.3094
    MIXING:  cpu time      0.0097: real time      0.0097
    --------------------------------------------
      LOOP:  cpu time      7.5113: real time      7.5218

 eigenvalue-minimisations  :   320
 total energy-change (2. order) : 0.8877014E-01  (-0.3238113E-01)
 number of electron     240.0000000 magnetization 
 augmentation part        5.6201507 magnetization 

 Broyden mixing:
  rms(total) = 0.48268E-01    rms(broyden)= 0.48263E-01
  rms(prec ) = 0.97919E-01
  weight for this iteration     100.00

 eigenvalues of (default mixing * dielectric matrix)
  average eigenvalue GAMMA=   1.8138
  2.3391  2.3391  1.2885  1.2885

 Free energy of the ion-electron system (eV)
  ---------------------------------------------------
  alpha Z        PSCENC =       107.77265948
  Ewald energy   TEWEN  =     24585.34044588
  -Hartree energ DENC   =    -31922.82042093
  -exchange      EXHF   =         0.00000000
  -V(xc)+E(xc)   XCENC  =       821.18720906
  PAW double counting   =     24171.82108427   -24212.84843569
  entropy T*S    EENTRO =        -0.00000000
  eigenvalues    EBANDS =     -2910.47762831
  atomic energy  EATOM  =      8828.93359873
  Solvation  Ediel_sol  =         0.00000000
  ---------------------------------------------------
  free energy    TOTEN  =      -531.09148751 eV

  energy without entropy =     -531.09148751  energy(sigma->0) =     -531.09148751


--------------------------------------------------------------------------------------------------------




--------------------------------------- Iteration      1(  10)  ---------------------------------------


    POTLOK:  cpu time      0.2363: real time      0.2415
    SETDIJ:  cpu time      0.2232: real time      0.2232
     EDDAV:  cpu time      7.0144: real time      7.0144
       DOS:  cpu time      0.0004: real time      0.0004
    CHARGE:  cpu time      0.3030: real time      0.3030
    MIXING:  cpu time      0.0101: real time      0.0101
    --------------------------------------------
      LOOP:  cpu time      7.7874: real time      7.7926

 eigenvalue-minimisations  :   480
 total energy-change (2. order) : 0.1116195E-01  (-0.4721133E-02)
 number of electron     240.0000000 magnetization 
 augmentation part        5.6169172 magnetization 

 Broyden mixing:
  rms(total) = 0.27652E-01    rms(broyden)= 0.27651E-01
  rms(prec ) = 0.58927E-01
  weight for this iteration     100.00

 eigenvalues of (default mixing * dielectric matrix)
  average eigenvalue GAMMA=   1.8304
  2.6471  2.6471  1.4628  1.4628  0.9323

 Free energy of the ion-electron system (eV)
  ---------------------------------------------------
  alpha Z        PSCENC =       107.77265948
  Ewald energy   TEWEN  =     24585.34044588
  -Hartree energ DENC   =    -31953.33652826
  -exchange      EXHF   =         0.00000000
  -V(xc)+E(xc)   XCENC  =       821.31916251
  PAW double counting   =     24107.42430439   -24148.16153190
  entropy T*S    EENTRO =        -0.00000000
  eigenvalues    EBANDS =     -2880.37243638
  atomic energy  EATOM  =      8828.93359873
  Solvation  Ediel_sol  =         0.00000000
  ---------------------------------------------------
  free energy    TOTEN  =      -531.08032556 eV

  energy without entropy =     -531.08032556  energy(sigma->0) =     -531.08032556


--------------------------------------------------------------------------------------------------------




--------------------------------------- Iteration      1(  11)  ---------------------------------------


    POTLOK:  cpu time      0.2383: real time      0.2426
    SETDIJ:  cpu time      0.2250: real time      0.2268
     EDDAV:  cpu time      6.3674: real time      6.3909
       DOS:  cpu time      0.0003: real time      0.0003
    CHARGE:  cpu time      0.3075: real time      0.3075
    MIXING:  cpu time      0.0097: real time      0.0096
    --------------------------------------------
      LOOP:  cpu time      7.1481: real time      7.1778

 eigenvalue-minimisations  :   416
 total energy-change (2. order) :-0.2946101E-02  (-0.2577120E-02)
 number of electron     240.0000000 magnetization 
 augmentation part        5.6112543 magnetization 

 Broyden mixing:
  rms(total) = 0.18126E-01    rms(broyden)= 0.18125E-01
  rms(prec ) = 0.30979E-01
  weight for this iteration     100.00

 eigenvalues of (default mixing * dielectric matrix)
  average eigenvalue GAMMA=   1.9624
  3.4552  2.2819  2.2819  1.6067  1.1569  0.9919

 Free energy of the ion-electron system (eV)
  ---------------------------------------------------
  alpha Z        PSCENC =       107.77265948
  Ewald energy   TEWEN  =     24585.34044588
  -Hartree energ DENC   =    -31987.26965486
  -exchange      EXHF   =         0.00000000
  -V(xc)+E(xc)   XCENC  =       821.79356629
  PAW double counting   =     24075.09412109   -24115.82167029
  entropy T*S    EENTRO =        -0.00000000
  eigenvalues    EBANDS =     -2846.92633797
  atomic energy  EATOM  =      8828.93359873
  Solvation  Ediel_sol  =         0.00000000
  ---------------------------------------------------
  free energy    TOTEN  =      -531.08327166 eV

  energy without entropy =     -531.08327166  energy(sigma->0) =     -531.08327166


--------------------------------------------------------------------------------------------------------




--------------------------------------- Iteration      1(  12)  ---------------------------------------


    POTLOK:  cpu time      0.2361: real time      0.2409
    SETDIJ:  cpu time      0.2248: real time      0.2248
     EDDAV:  cpu time      5.8490: real time      5.8490
       DOS:  cpu time      0.0003: real time      0.0003
    CHARGE:  cpu time      0.3107: real time      0.3107
    MIXING:  cpu time      0.0101: real time      0.0101
    --------------------------------------------
      LOOP:  cpu time      6.6308: real time      6.6357

 eigenvalue-minimisations  :   384
 total energy-change (2. order) :-0.9148212E-02  (-0.1018568E-02)
 number of electron     240.0000000 magnetization 
 augmentation part        5.6066195 magnetization 

 Broyden mixing:
  rms(total) = 0.86461E-02    rms(broyden)= 0.86444E-02
  rms(prec ) = 0.15705E-01
  weight for this iteration     100.00

 eigenvalues of (default mixing * dielectric matrix)
  average eigenvalue GAMMA=   2.2279
  5.3028  2.6321  2.3100  1.6667  1.6667  1.0085  1.0085

 Free energy of the ion-electron system (eV)
  ---------------------------------------------------
  alpha Z        PSCENC =       107.77265948
  Ewald energy   TEWEN  =     24585.34044588
  -Hartree energ DENC   =    -32005.84505702
  -exchange      EXHF   =         0.00000000
  -V(xc)+E(xc)   XCENC  =       822.04553504
  PAW double counting   =     24047.18544832   -24087.98543949
  entropy T*S    EENTRO =        -0.00000000
  eigenvalues    EBANDS =     -2828.53961080
  atomic energy  EATOM  =      8828.93359873
  Solvation  Ediel_sol  =         0.00000000
  ---------------------------------------------------
  free energy    TOTEN  =      -531.09241987 eV

  energy without entropy =     -531.09241987  energy(sigma->0) =     -531.09241987


--------------------------------------------------------------------------------------------------------




--------------------------------------- Iteration      1(  13)  ---------------------------------------


    POTLOK:  cpu time      0.2374: real time      0.2416
    SETDIJ:  cpu time      0.2258: real time      0.2258
     EDDAV:  cpu time      5.8510: real time      5.8509
       DOS:  cpu time      0.0002: real time      0.0002
    CHARGE:  cpu time      0.3073: real time      0.3073
    MIXING:  cpu time      0.0100: real time      0.0100
    --------------------------------------------
      LOOP:  cpu time      6.6317: real time      6.6358

 eigenvalue-minimisations  :   384
 total energy-change (2. order) :-0.7595701E-02  (-0.1942581E-03)
 number of electron     240.0000000 magnetization 
 augmentation part        5.6068535 magnetization 

 Broyden mixing:
  rms(total) = 0.52809E-02    rms(broyden)= 0.52808E-02
  rms(prec ) = 0.85019E-02
  weight for this iteration     100.00

 eigenvalues of (default mixing * dielectric matrix)
  average eigenvalue GAMMA=   2.3386
  5.9377  3.2543  2.6008  1.9873  1.4510  1.4510  1.0133  1.0133

 Free energy of the ion-electron system (eV)
  ---------------------------------------------------
  alpha Z        PSCENC =       107.77265948
  Ewald energy   TEWEN  =     24585.34044588
  -Hartree energ DENC   =    -32011.18074564
  -exchange      EXHF   =         0.00000000
  -V(xc)+E(xc)   XCENC  =       821.97650923
  PAW double counting   =     24023.71261045   -24064.50970043
  entropy T*S    EENTRO =        -0.00000000
  eigenvalues    EBANDS =     -2823.14539326
  atomic energy  EATOM  =      8828.93359873
  Solvation  Ediel_sol  =         0.00000000
  ---------------------------------------------------
  free energy    TOTEN  =      -531.10001557 eV

  energy without entropy =     -531.10001557  energy(sigma->0) =     -531.10001557


--------------------------------------------------------------------------------------------------------




--------------------------------------- Iteration      1(  14)  ---------------------------------------


    POTLOK:  cpu time      0.2362: real time      0.2407
    SETDIJ:  cpu time      0.2236: real time      0.2236
     EDDAV:  cpu time      6.2333: real time      6.2332
       DOS:  cpu time      0.0003: real time      0.0003
    CHARGE:  cpu time      0.3086: real time      0.3086
    MIXING:  cpu time      0.0101: real time      0.0101
    --------------------------------------------
      LOOP:  cpu time      7.0120: real time      7.0163

 eigenvalue-minimisations  :   416
 total energy-change (2. order) :-0.8405625E-02  (-0.1288533E-03)
 number of electron     240.0000000 magnetization 
 augmentation part        5.6075572 magnetization 

 Broyden mixing:
  rms(total) = 0.46964E-02    rms(broyden)= 0.46964E-02
  rms(prec ) = 0.59554E-02
  weight for this iteration     100.00

 eigenvalues of (default mixing * dielectric matrix)
  average eigenvalue GAMMA=   2.3614
  6.6262  3.5889  2.3379  2.3379  1.6828  1.6828  1.0365  1.0365  0.9230

 Free energy of the ion-electron system (eV)
  ---------------------------------------------------
  alpha Z        PSCENC =       107.77265948
  Ewald energy   TEWEN  =     24585.34044588
  -Hartree energ DENC   =    -32010.75538150
  -exchange      EXHF   =         0.00000000
  -V(xc)+E(xc)   XCENC  =       821.91393373
  PAW double counting   =     24071.97055030   -24112.75390712
  entropy T*S    EENTRO =        -0.00000000
  eigenvalues    EBANDS =     -2823.53032069
  atomic energy  EATOM  =      8828.93359873
  Solvation  Ediel_sol  =         0.00000000
  ---------------------------------------------------
  free energy    TOTEN  =      -531.10842119 eV

  energy without entropy =     -531.10842119  energy(sigma->0) =     -531.10842119


--------------------------------------------------------------------------------------------------------




--------------------------------------- Iteration      1(  15)  ---------------------------------------


    POTLOK:  cpu time      0.2356: real time      0.2407
    SETDIJ:  cpu time      0.2242: real time      0.2242
     EDDAV:  cpu time      6.5998: real time      6.6004
       DOS:  cpu time      0.0003: real time      0.0003
    CHARGE:  cpu time      0.4194: real time      0.4195
    MIXING:  cpu time      0.0244: real time      0.0244
    --------------------------------------------
      LOOP:  cpu time      7.5037: real time      7.5095

 eigenvalue-minimisations  :   384
 total energy-change (2. order) :-0.3132052E-02  (-0.4259491E-04)
 number of electron     240.0000000 magnetization 
 augmentation part        5.6073059 magnetization 

 Broyden mixing:
  rms(total) = 0.97907E-03    rms(broyden)= 0.97903E-03
  rms(prec ) = 0.23113E-02
  weight for this iteration     100.00

 eigenvalues of (default mixing * dielectric matrix)
  average eigenvalue GAMMA=   2.4545
  7.1686  4.2679  2.7302  2.5170  1.8922  1.4874  1.4324  1.0965  0.9762  0.9762

 Free energy of the ion-electron system (eV)
  ---------------------------------------------------
  alpha Z        PSCENC =       107.77265948
  Ewald energy   TEWEN  =     24585.34044588
  -Hartree energ DENC   =    -32011.61634426
  -exchange      EXHF   =         0.00000000
  -V(xc)+E(xc)   XCENC  =       821.91915289
  PAW double counting   =     24045.71457838   -24086.50239504
  entropy T*S    EENTRO =        -0.00000000
  eigenvalues    EBANDS =     -2822.67324929
  atomic energy  EATOM  =      8828.93359873
  Solvation  Ediel_sol  =         0.00000000
  ---------------------------------------------------
  free energy    TOTEN  =      -531.11155325 eV

  energy without entropy =     -531.11155325  energy(sigma->0) =     -531.11155325


--------------------------------------------------------------------------------------------------------




--------------------------------------- Iteration      1(  16)  ---------------------------------------


    POTLOK:  cpu time      0.2588: real time      0.6233
    SETDIJ:  cpu time      0.2488: real time      0.2488
     EDDAV:  cpu time      5.8238: real time      5.8257
       DOS:  cpu time      0.0003: real time      0.0002
    CHARGE:  cpu time      0.3054: real time      0.3054
    MIXING:  cpu time      0.0088: real time      0.0088
    --------------------------------------------
      LOOP:  cpu time      6.6459: real time      7.0123

 eigenvalue-minimisations  :   352
 total energy-change (2. order) :-0.1793630E-02  (-0.2771001E-04)
 number of electron     240.0000000 magnetization 
 augmentation part        5.6070143 magnetization 

 Broyden mixing:
  rms(total) = 0.10914E-02    rms(broyden)= 0.10913E-02
  rms(prec ) = 0.16334E-02
  weight for this iteration     100.00

 eigenvalues of (default mixing * dielectric matrix)
  average eigenvalue GAMMA=   2.4528
  7.2626  4.5828  2.7517  2.7517  2.1224  1.7001  1.7001  0.9709  1.0208  1.0591
  1.0591

 Free energy of the ion-electron system (eV)
  ---------------------------------------------------
  alpha Z        PSCENC =       107.77265948
  Ewald energy   TEWEN  =     24585.34044588
  -Hartree energ DENC   =    -32012.54283180
  -exchange      EXHF   =         0.00000000
  -V(xc)+E(xc)   XCENC  =       821.93443886
  PAW double counting   =     24044.65060676   -24085.43798123
  entropy T*S    EENTRO =        -0.00000000
  eigenvalues    EBANDS =     -2821.76428355
  atomic energy  EATOM  =      8828.93359873
  Solvation  Ediel_sol  =         0.00000000
  ---------------------------------------------------
  free energy    TOTEN  =      -531.11334688 eV

  energy without entropy =     -531.11334688  energy(sigma->0) =     -531.11334688


--------------------------------------------------------------------------------------------------------




--------------------------------------- Iteration      1(  17)  ---------------------------------------


    POTLOK:  cpu time      0.2359: real time      0.2409
    SETDIJ:  cpu time      0.2231: real time      0.2231
     EDDAV:  cpu time      6.2516: real time      6.2518
       DOS:  cpu time      0.0004: real time      0.0004
    CHARGE:  cpu time      0.3069: real time      0.3069
    MIXING:  cpu time      0.0087: real time      0.0087
    --------------------------------------------
      LOOP:  cpu time      7.0267: real time      7.0318

 eigenvalue-minimisations  :   416
 total energy-change (2. order) :-0.3790391E-03  (-0.4419279E-05)
 number of electron     240.0000000 magnetization 
 augmentation part        5.6070147 magnetization 

 Broyden mixing:
  rms(total) = 0.65087E-03    rms(broyden)= 0.65082E-03
  rms(prec ) = 0.87445E-03
  weight for this iteration     100.00

 eigenvalues of (default mixing * dielectric matrix)
  average eigenvalue GAMMA=   2.5486
  7.7265  5.7546  3.4459  2.5438  2.2951  1.7918  1.7053  1.1893  1.1893  0.9259
  1.0078  1.0078

 Free energy of the ion-electron system (eV)
  ---------------------------------------------------
  alpha Z        PSCENC =       107.77265948
  Ewald energy   TEWEN  =     24585.34044588
  -Hartree energ DENC   =    -32012.47640028
  -exchange      EXHF   =         0.00000000
  -V(xc)+E(xc)   XCENC  =       821.93162722
  PAW double counting   =     24044.27876554   -24085.06715176
  entropy T*S    EENTRO =        -0.00000000
  eigenvalues    EBANDS =     -2821.82727072
  atomic energy  EATOM  =      8828.93359873
  Solvation  Ediel_sol  =         0.00000000
  ---------------------------------------------------
  free energy    TOTEN  =      -531.11372592 eV

  energy without entropy =     -531.11372592  energy(sigma->0) =     -531.11372592


--------------------------------------------------------------------------------------------------------




--------------------------------------- Iteration      1(  18)  ---------------------------------------


    POTLOK:  cpu time      0.2373: real time      0.2424
    SETDIJ:  cpu time      0.2247: real time      0.2253
     EDDAV:  cpu time      5.8498: real time      5.8499
       DOS:  cpu time      0.0002: real time      0.0002
    CHARGE:  cpu time      0.3063: real time      0.3063
    MIXING:  cpu time      0.0086: real time      0.0086
    --------------------------------------------
      LOOP:  cpu time      6.6270: real time      6.6328

 eigenvalue-minimisations  :   384
 total energy-change (2. order) :-0.1179672E-03  (-0.7824680E-06)
 number of electron     240.0000000 magnetization 
 augmentation part        5.6070627 magnetization 

 Broyden mixing:
  rms(total) = 0.22046E-03    rms(broyden)= 0.22033E-03
  rms(prec ) = 0.40365E-03
  weight for this iteration     100.00

 eigenvalues of (default mixing * dielectric matrix)
  average eigenvalue GAMMA=   2.5733
  7.7292  6.4461  3.6308  2.7261  2.5248  1.9215  1.5632  1.5632  0.9750  0.9750
  1.0729  1.1626  1.1626

 Free energy of the ion-electron system (eV)
  ---------------------------------------------------
  alpha Z        PSCENC =       107.77265948
  Ewald energy   TEWEN  =     24585.34044588
  -Hartree energ DENC   =    -32012.46303739
  -exchange      EXHF   =         0.00000000
  -V(xc)+E(xc)   XCENC  =       821.92968800
  PAW double counting   =     24046.16089964   -24086.94813858
  entropy T*S    EENTRO =        -0.00000000
  eigenvalues    EBANDS =     -2821.83995964
  atomic energy  EATOM  =      8828.93359873
  Solvation  Ediel_sol  =         0.00000000
  ---------------------------------------------------
  free energy    TOTEN  =      -531.11384388 eV

  energy without entropy =     -531.11384388  energy(sigma->0) =     -531.11384388


--------------------------------------------------------------------------------------------------------




--------------------------------------- Iteration      1(  19)  ---------------------------------------


    POTLOK:  cpu time      0.2361: real time      0.2403
    SETDIJ:  cpu time      0.2231: real time      0.2230
     EDDAV:  cpu time      6.2462: real time      6.2463
       DOS:  cpu time      0.0003: real time      0.0003
    CHARGE:  cpu time      0.3056: real time      0.3055
    MIXING:  cpu time      0.0098: real time      0.0098
    --------------------------------------------
      LOOP:  cpu time      7.0210: real time      7.0253

 eigenvalue-minimisations  :   416
 total energy-change (2. order) :-0.7689501E-04  (-0.2470519E-06)
 number of electron     240.0000000 magnetization 
 augmentation part        5.6071034 magnetization 

 Broyden mixing:
  rms(total) = 0.24788E-03    rms(broyden)= 0.24777E-03
  rms(prec ) = 0.32768E-03
  weight for this iteration     100.00

 eigenvalues of (default mixing * dielectric matrix)
  average eigenvalue GAMMA=   2.5775
  8.2018  6.5699  3.8307  2.9638  2.4654  2.2084  1.8298  1.6395  1.1938  1.1938
  0.9746  0.9746  1.0197  1.0197

 Free energy of the ion-electron system (eV)
  ---------------------------------------------------
  alpha Z        PSCENC =       107.77265948
  Ewald energy   TEWEN  =     24585.34044588
  -Hartree energ DENC   =    -32012.43614116
  -exchange      EXHF   =         0.00000000
  -V(xc)+E(xc)   XCENC  =       821.92725803
  PAW double counting   =     24047.83480204   -24088.62171805
  entropy T*S    EENTRO =        -0.00000000
  eigenvalues    EBANDS =     -2821.86482573
  atomic energy  EATOM  =      8828.93359873
  Solvation  Ediel_sol  =         0.00000000
  ---------------------------------------------------
  free energy    TOTEN  =      -531.11392078 eV

  energy without entropy =     -531.11392078  energy(sigma->0) =     -531.11392078


--------------------------------------------------------------------------------------------------------




--------------------------------------- Iteration      1(  20)  ---------------------------------------


    POTLOK:  cpu time      0.2380: real time      0.2445
    SETDIJ:  cpu time      0.2258: real time      0.2285
     EDDAV:  cpu time      6.2799: real time      6.3641
       DOS:  cpu time      0.0004: real time      0.0004
    CHARGE:  cpu time      0.3054: real time      0.3054
    MIXING:  cpu time      0.0093: real time      0.0093
    --------------------------------------------
      LOOP:  cpu time      7.0588: real time      7.1521

 eigenvalue-minimisations  :   416
 total energy-change (2. order) :-0.4344596E-04  (-0.9980344E-07)
 number of electron     240.0000000 magnetization 
 augmentation part        5.6071010 magnetization 

 Broyden mixing:
  rms(total) = 0.93704E-04    rms(broyden)= 0.93415E-04
  rms(prec ) = 0.14293E-03
  weight for this iteration     100.00

 eigenvalues of (default mixing * dielectric matrix)
  average eigenvalue GAMMA=   2.6023
  8.3317  6.7552  4.2355  3.2975  2.5669  2.3772  1.8577  1.7235  1.4574  1.1779
  1.1779  0.9557  1.0003  1.0003  1.1204

 Free energy of the ion-electron system (eV)
  ---------------------------------------------------
  alpha Z        PSCENC =       107.77265948
  Ewald energy   TEWEN  =     24585.34044588
  -Hartree energ DENC   =    -32012.46085075
  -exchange      EXHF   =         0.00000000
  -V(xc)+E(xc)   XCENC  =       821.92744659
  PAW double counting   =     24047.14134747   -24087.92841220
  entropy T*S    EENTRO =        -0.00000000
  eigenvalues    EBANDS =     -2821.84019943
  atomic energy  EATOM  =      8828.93359873
  Solvation  Ediel_sol  =         0.00000000
  ---------------------------------------------------
  free energy    TOTEN  =      -531.11396422 eV

  energy without entropy =     -531.11396422  energy(sigma->0) =     -531.11396422


--------------------------------------------------------------------------------------------------------




--------------------------------------- Iteration      1(  21)  ---------------------------------------


    POTLOK:  cpu time      0.2390: real time      0.2425
    SETDIJ:  cpu time      0.2225: real time      0.2238
     EDDAV:  cpu time      5.8487: real time      5.8489
       DOS:  cpu time      0.0003: real time      0.0003
    CHARGE:  cpu time      0.3076: real time      0.3077
    MIXING:  cpu time      0.0094: real time      0.0094
    --------------------------------------------
      LOOP:  cpu time      6.6276: real time      6.6325

 eigenvalue-minimisations  :   384
 total energy-change (2. order) :-0.1616529E-04  (-0.8459914E-07)
 number of electron     240.0000000 magnetization 
 augmentation part        5.6070856 magnetization 

 Broyden mixing:
  rms(total) = 0.45736E-04    rms(broyden)= 0.45141E-04
  rms(prec ) = 0.59652E-04
  weight for this iteration     100.00

 eigenvalues of (default mixing * dielectric matrix)
  average eigenvalue GAMMA=   2.6531
  8.9233  6.7978  4.9815  3.3869  2.5629  2.5629  2.1456  1.9514  1.5621  1.2095
  1.2095  0.9690  0.9690  1.0881  1.0651  1.0651

 Free energy of the ion-electron system (eV)
  ---------------------------------------------------
  alpha Z        PSCENC =       107.77265948
  Ewald energy   TEWEN  =     24585.34044588
  -Hartree energ DENC   =    -32012.51364949
  -exchange      EXHF   =         0.00000000
  -V(xc)+E(xc)   XCENC  =       821.92830554
  PAW double counting   =     24047.01629038   -24087.80339930
  entropy T*S    EENTRO =        -0.00000000
  eigenvalues    EBANDS =     -2821.78823161
  atomic energy  EATOM  =      8828.93359873
  Solvation  Ediel_sol  =         0.00000000
  ---------------------------------------------------
  free energy    TOTEN  =      -531.11398039 eV

  energy without entropy =     -531.11398039  energy(sigma->0) =     -531.11398039


--------------------------------------------------------------------------------------------------------




--------------------------------------- Iteration      1(  22)  ---------------------------------------


    POTLOK:  cpu time      0.2368: real time      0.2415
    SETDIJ:  cpu time      0.2235: real time      0.2241
     EDDAV:  cpu time      7.6985: real time      7.7082
       DOS:  cpu time      0.0003: real time      0.0003
    CHARGE:  cpu time      0.3046: real time      0.3046
    MIXING:  cpu time      0.0109: real time      0.0109
    --------------------------------------------
      LOOP:  cpu time      8.4745: real time      8.4896

 eigenvalue-minimisations  :   416
 total energy-change (2. order) :-0.5123096E-05  (-0.2844461E-07)
 number of electron     240.0000000 magnetization 
 augmentation part        5.6070829 magnetization 

 Broyden mixing:
  rms(total) = 0.23458E-04    rms(broyden)= 0.22278E-04
  rms(prec ) = 0.28153E-04
  weight for this iteration     100.00

 eigenvalues of (default mixing * dielectric matrix)
  average eigenvalue GAMMA=   2.6652
  9.0872  7.1009  5.4939  3.6057  2.8223  2.5084  2.2040  1.8481  1.7151  1.3042
  1.3042  1.1793  1.1793  1.0046  1.0046  0.9649  0.9818

 Free energy of the ion-electron system (eV)
  ---------------------------------------------------
  alpha Z        PSCENC =       107.77265948
  Ewald energy   TEWEN  =     24585.34044588
  -Hartree energ DENC   =    -32012.51163762
  -exchange      EXHF   =         0.00000000
  -V(xc)+E(xc)   XCENC  =       821.92839358
  PAW double counting   =     24046.81608584   -24087.60326217
  entropy T*S    EENTRO =        -0.00000000
  eigenvalues    EBANDS =     -2821.79026922
  atomic energy  EATOM  =      8828.93359873
  Solvation  Ediel_sol  =         0.00000000
  ---------------------------------------------------
  free energy    TOTEN  =      -531.11398551 eV

  energy without entropy =     -531.11398551  energy(sigma->0) =     -531.11398551


--------------------------------------------------------------------------------------------------------




--------------------------------------- Iteration      1(  23)  ---------------------------------------


    POTLOK:  cpu time      0.2367: real time      0.2417
    SETDIJ:  cpu time      0.2227: real time      0.2227
     EDDAV:  cpu time      5.8548: real time      5.8567
       DOS:  cpu time      0.0003: real time      0.0003
    CHARGE:  cpu time      0.3052: real time      0.3052
    MIXING:  cpu time      0.0102: real time      0.0102
    --------------------------------------------
      LOOP:  cpu time      6.6299: real time      6.6368

 eigenvalue-minimisations  :   384
 total energy-change (2. order) :-0.6957271E-06  (-0.2447887E-08)
 number of electron     240.0000000 magnetization 
 augmentation part        5.6070824 magnetization 

 Broyden mixing:
  rms(total) = 0.15453E-04    rms(broyden)= 0.13596E-04
  rms(prec ) = 0.17223E-04
  weight for this iteration     100.00
  WARNING: grid for Broyden might be to small

 eigenvalues of (default mixing * dielectric matrix)
  average eigenvalue GAMMA=   2.6460
  9.3306  7.2100  5.7421  3.6420  2.9210  2.4804  2.4804  1.8539  1.6902  1.4572
  1.4572  1.1564  1.1564  0.9503  0.9837  0.9837  1.0666  1.0666

 Free energy of the ion-electron system (eV)
  ---------------------------------------------------
  alpha Z        PSCENC =       107.77265948
  Ewald energy   TEWEN  =     24585.34044588
  -Hartree energ DENC   =    -32012.51608495
  -exchange      EXHF   =         0.00000000
  -V(xc)+E(xc)   XCENC  =       821.92843892
  PAW double counting   =     24046.82964920   -24087.61680084
  entropy T*S    EENTRO =        -0.00000000
  eigenvalues    EBANDS =     -2821.78589263
  atomic energy  EATOM  =      8828.93359873
  Solvation  Ediel_sol  =         0.00000000
  ---------------------------------------------------
  free energy    TOTEN  =      -531.11398621 eV

  energy without entropy =     -531.11398621  energy(sigma->0) =     -531.11398621


--------------------------------------------------------------------------------------------------------




--------------------------------------- Iteration      1(  24)  ---------------------------------------


    POTLOK:  cpu time      0.2363: real time      0.2413
    SETDIJ:  cpu time      0.2238: real time      0.2241
     EDDAV:  cpu time      5.0724: real time      5.0742
       DOS:  cpu time      0.0003: real time      0.0003
    CHARGE:  cpu time      0.3059: real time      0.3060
    MIXING:  cpu time      0.0099: real time      0.0099
    --------------------------------------------
      LOOP:  cpu time      5.8485: real time      5.8557

 eigenvalue-minimisations  :   320
 total energy-change (2. order) :-0.4353133E-06  (-0.2973426E-09)
 number of electron     240.0000000 magnetization 
 augmentation part        5.6070834 magnetization 

 Broyden mixing:
  rms(total) = 0.84415E-05    rms(broyden)= 0.41618E-05
  rms(prec ) = 0.63024E-05
  weight for this iteration     100.00
  WARNING: grid for Broyden might be to small

 eigenvalues of (default mixing * dielectric matrix)
  average eigenvalue GAMMA=   2.6307
  9.3534  7.3643  5.7701  3.8335  2.9912  2.5787  2.4779  2.0548  1.9783  1.5662
  1.3287  1.3287  1.1598  1.1598  0.9603  0.9720  1.0622  1.0220  1.0220

 Free energy of the ion-electron system (eV)
  ---------------------------------------------------
  alpha Z        PSCENC =       107.77265948
  Ewald energy   TEWEN  =     24585.34044588
  -Hartree energ DENC   =    -32012.51383940
  -exchange      EXHF   =         0.00000000
  -V(xc)+E(xc)   XCENC  =       821.92837861
  PAW double counting   =     24046.86299468   -24087.65013862
  entropy T*S    EENTRO =        -0.00000000
  eigenvalues    EBANDS =     -2821.78808599
  atomic energy  EATOM  =      8828.93359873
  Solvation  Ediel_sol  =         0.00000000
  ---------------------------------------------------
  free energy    TOTEN  =      -531.11398664 eV

  energy without entropy =     -531.11398664  energy(sigma->0) =     -531.11398664


--------------------------------------------------------------------------------------------------------




--------------------------------------- Iteration      1(  25)  ---------------------------------------


    POTLOK:  cpu time      0.2360: real time      0.2412
    SETDIJ:  cpu time      0.2225: real time      0.2225
     EDDAV:  cpu time      5.0786: real time      5.0807
       DOS:  cpu time      0.0003: real time      0.0003
    CHARGE:  cpu time      0.3058: real time      0.3058
    MIXING:  cpu time      0.0103: real time      0.0103
    --------------------------------------------
      LOOP:  cpu time      5.8534: real time      5.8606

 eigenvalue-minimisations  :   320
 total energy-change (2. order) :-0.2186789E-06  ( 0.4157563E-10)
 number of electron     240.0000000 magnetization 
 augmentation part        5.6070839 magnetization 

 Broyden mixing:
  rms(total) = 0.76599E-05    rms(broyden)= 0.21765E-05
  rms(prec ) = 0.30989E-05
  weight for this iteration     100.00
  WARNING: grid for Broyden might be to small

 eigenvalues of (default mixing * dielectric matrix)
  average eigenvalue GAMMA=   2.6280
  9.4124  7.3630  5.8629  3.9879  3.3428  2.7994  2.4598  2.3196  1.9012  1.6480
  1.4621  1.4621  1.1613  1.1613  1.1344  1.1344  0.9583  0.9791  1.0045  1.0045

 Free energy of the ion-electron system (eV)
[...]
 ion   44
    1     0.00675    -0.02150     0.10542
    2    -0.01704     0.11600    -0.01367
    3     0.11979    -0.00706    -0.12941
 ion   45
    1    -0.05606    -0.11386     0.01892
    2    -0.14954    -0.04166     0.05891
    3     0.04532     0.06012     0.07128
 ion   46
    1    -0.04787     0.03114    -0.11071
    2     0.06957     0.05929     0.08355
    3    -0.12855     0.07639    -0.02418
 ion   47
    1     0.06828     0.00992     0.01398
    2     0.00521     0.11765    -0.02644
    3     0.00271    -0.02771    -0.18957
 ion   48
    1    -0.16454     0.04290    -0.02504
    2     0.06023     0.10416    -0.01106
    3    -0.04756     0.00108     0.08798
 ion   49
    1     0.05670     0.04598    -0.04999
    2     0.01217     0.02964     0.15207
    3    -0.03511     0.11819    -0.11306
 ion   50
    1    -0.14122     0.02530     0.08596
    2     0.03205     0.10704    -0.01339
    3     0.08578     0.01407     0.05192
 ion   51
    1    -0.06772    -0.03367    -0.12692
    2    -0.06426     0.08614    -0.05547
    3    -0.13245    -0.08424     0.01321
 ion   52
    1    -0.01475    -0.07860     0.11431
    2    -0.09792    -0.01591     0.07824
    3     0.11311     0.07701     0.02307
 ion   53
    1     0.08381     0.00781     0.05859
    2     0.03426     0.03031    -0.02289
    3     0.05456     0.06979    -0.11648
 ion   54
    1     0.05292     0.04929    -0.09715
    2     0.06700     0.03785     0.06559
    3    -0.10750     0.04469    -0.10135
 ion   55
    1    -0.16792    -0.02242     0.03169
    2    -0.03849     0.10254    -0.00513
    3     0.04481    -0.02987     0.10164
 ion   56
    1     0.01331     0.10584    -0.01384
    2     0.13095    -0.15618    -0.02249
    3    -0.02230    -0.01937     0.09501
 ion   57
    1     0.03223     0.08566     0.06920
    2     0.10781    -0.11367    -0.07018
    3     0.06055    -0.06870     0.05928
 ion   58
    1     0.08668     0.04953     0.01332
    2     0.04458    -0.12635     0.03911
    3     0.04136    -0.04384     0.03614
 ion   59
    1     0.08819     0.03961    -0.00297
    2     0.03652    -0.12761    -0.11637
    3     0.00561    -0.08603     0.01585
 ion   60
    1     0.06795     0.00782     0.00866
    2     0.00291    -0.20073    -0.05325
    3     0.00798    -0.03889     0.10535
 
    CHARGE:  cpu time      0.3047: real time      0.3047
    FORLOC:  cpu time      0.0605: real time      0.0605
    FORNL :  cpu time      1.9335: real time      1.9338
    STRESS:  cpu time      9.3728: real time      9.3749
    FORCOR:  cpu time      0.5074: real time      0.5082
    FORHAR:  cpu time      0.2171: real time      0.2171
    MIXING:  cpu time      0.0106: real time      0.0106
    OFIELD:  cpu time      0.0001: real time      0.0001

  FORCE on cell =-STRESS in cart. coord.  units (eV):
  Direction    XX          YY          ZZ          XY          YZ          ZX
  --------------------------------------------------------------------------------------
  Alpha Z   107.77266   107.77266   107.77266
  Ewald    8199.38742  8194.14511  8191.77220    -1.16252    -5.28860     2.83735
  Hartree 10674.63164 10669.79744 10668.08367    -0.56004    -4.34476     2.13372
  E(xc)    -897.87555  -897.87543  -897.87899    -0.00332    -0.00342     0.00254
  Local  -21622.46413-21612.38004-21608.31289     1.67938     9.59579    -4.90738
  n-local  -198.63016  -198.62536  -198.63518    -0.00750    -0.00677     0.00454
  augment   -21.90619   -21.90626   -21.90627     0.00022     0.00014    -0.00040
  Kinetic  3758.62919  3758.60207  3758.75596     0.11543     0.11056    -0.08967
  Fock        0.00000     0.00000     0.00000     0.00000     0.00000     0.00000
  -------------------------------------------------------------------------------------
  Total      -0.45512    -0.46981    -0.34884     0.06165     0.06295    -0.01930
  in kB      -0.26574    -0.27432    -0.20368     0.03600     0.03676    -0.01127
  external pressure =       -0.25 kB  Pullay stress =        0.00 kB


 VOLUME and BASIS-vectors are now :
 -----------------------------------------------------------------------------
  energy-cutoff  :      520.00
  volume of cell :     2744.00
      direct lattice vectors                 reciprocal lattice vectors
    14.000000000  0.000000000  0.000000000     0.071428571  0.000000000  0.000000000
     0.000000000  9.899494937 -9.899494937     0.000000000  0.050507627 -0.050507627
     0.000000000  9.899494937  9.899494937     0.000000000  0.050507627  0.050507627

  length of vectors
    14.000000000 14.000000000 14.000000000     0.071428571  0.071428571  0.071428571


 FORCES acting on ions
    electron-ion (+dipol)            ewald-force                    non-local-force                 convergence-correction
 -----------------------------------------------------------------------------------------------
   -.244E+03 0.308E+03 0.916E+02   0.245E+03 -.308E+03 -.917E+02   -.576E+00 0.531E+00 0.187E+00   0.000E+00 0.000E+00 0.000E+00
   -.164E+03 0.366E+03 -.425E+02   0.164E+03 -.367E+03 0.427E+02   -.354E+00 0.701E+00 -.205E+00   0.000E+00 0.000E+00 0.000E+00
   -.133E+03 0.297E+03 0.215E+03   0.134E+03 -.298E+03 -.216E+03   -.261E+00 0.537E+00 0.547E+00   0.000E+00 0.000E+00 0.000E+00
   0.307E+01 0.401E+03 -.103E+01   -.317E+01 -.401E+03 0.111E+01   0.995E-01 0.798E+00 -.827E-01   0.000E+00 0.000E+00 0.000E+00
   0.230E+02 0.358E+03 0.154E+03   -.231E+02 -.359E+03 -.155E+03   0.154E+00 0.699E+00 0.381E+00   0.000E+00 0.000E+00 0.000E+00
   -.330E+03 0.206E+03 0.838E+02   0.330E+03 -.207E+03 -.840E+02   -.616E+00 0.510E+00 0.186E+00   0.000E+00 0.000E+00 0.000E+00
   -.192E+03 0.306E+03 -.165E+03   0.193E+03 -.307E+03 0.165E+03   -.359E+00 0.673E+00 -.236E+00   0.000E+00 0.000E+00 0.000E+00
   -.136E+03 0.189E+03 0.316E+03   0.137E+03 -.189E+03 -.316E+03   -.267E+00 0.502E+00 0.573E+00   0.000E+00 0.000E+00 0.000E+00
   0.113E+03 0.374E+03 -.846E+02   -.113E+03 -.374E+03 0.847E+02   0.133E+00 0.798E+00 -.112E+00   0.000E+00 0.000E+00 0.000E+00
   0.149E+03 0.301E+03 0.204E+03   -.149E+03 -.301E+03 -.204E+03   0.188E+00 0.676E+00 0.396E+00   0.000E+00 0.000E+00 0.000E+00
   -.358E+03 0.138E+03 -.743E+02   0.359E+03 -.138E+03 0.746E+02   -.694E+00 0.318E+00 -.242E+00   0.000E+00 0.000E+00 0.000E+00
   -.302E+03 0.182E+03 -.189E+03   0.303E+03 -.183E+03 0.189E+03   -.690E+00 0.331E+00 -.289E+00   0.000E+00 0.000E+00 0.000E+00
   -.333E+03 0.740E+02 0.204E+03   0.333E+03 -.741E+02 -.205E+03   -.626E+00 0.147E+00 0.500E+00   0.000E+00 0.000E+00 0.000E+00
   -.250E+03 0.697E+02 0.310E+03   0.251E+03 -.699E+02 -.310E+03   -.587E+00 0.149E+00 0.520E+00   0.000E+00 0.000E+00 0.000E+00
   -.621E+02 0.264E+03 -.271E+03   0.621E+02 -.265E+03 0.272E+03   -.360E-02 0.592E+00 -.546E+00   0.000E+00 0.000E+00 0.000E+00
   0.783E+02 0.297E+03 -.234E+03   -.784E+02 -.297E+03 0.234E+03   0.388E-01 0.610E+00 -.542E+00   0.000E+00 0.000E+00 0.000E+00
   0.163E+02 0.120E+03 0.375E+03   -.164E+02 -.120E+03 -.376E+03   0.140E+00 0.309E+00 0.734E+00   0.000E+00 0.000E+00 0.000E+00
   0.145E+03 0.169E+03 0.325E+03   -.145E+03 -.170E+03 -.326E+03   0.180E+00 0.328E+00 0.720E+00   0.000E+00 0.000E+00 0.000E+00
   0.258E+03 0.310E+03 -.333E+02   -.259E+03 -.311E+03 0.333E+02   0.535E+00 0.598E+00 0.549E-01   0.000E+00 0.000E+00 0.000E+00
   0.273E+03 0.278E+03 0.101E+03   -.274E+03 -.279E+03 -.101E+03   0.544E+00 0.584E+00 0.938E-01   0.000E+00 0.000E+00 0.000E+00
   -.378E+03 -.380E+02 -.542E+02   0.378E+03 0.382E+02 0.544E+02   -.774E+00 -.153E+00 -.191E+00   0.000E+00 0.000E+00 0.000E+00
   -.363E+03 -.761E+02 0.120E+03   0.363E+03 0.764E+02 -.120E+03   -.714E+00 -.263E+00 0.271E+00   0.000E+00 0.000E+00 0.000E+00
   -.249E+03 0.687E+02 -.311E+03   0.250E+03 -.688E+02 0.312E+03   -.523E+00 0.282E-01 -.618E+00   0.000E+00 0.000E+00 0.000E+00
   -.993E+02 0.121E+03 -.364E+03   0.994E+02 -.121E+03 0.364E+03   -.101E+00 0.189E+00 -.783E+00   0.000E+00 0.000E+00 0.000E+00
   -.176E+03 -.707E+02 0.355E+03   0.176E+03 0.710E+02 -.356E+03   -.378E+00 -.261E+00 0.666E+00   0.000E+00 0.000E+00 0.000E+00
   -.922E+01 -.360E+02 0.398E+03   0.914E+01 0.362E+02 -.399E+03   0.707E-01 -.158E+00 0.790E+00   0.000E+00 0.000E+00 0.000E+00
   0.206E+03 0.189E+03 -.282E+03   -.206E+03 -.190E+03 0.283E+03   0.384E+00 0.293E+00 -.649E+00   0.000E+00 0.000E+00 0.000E+00
   0.311E+03 0.198E+03 -.155E+03   -.312E+03 -.198E+03 0.156E+03   0.695E+00 0.297E+00 -.286E+00   0.000E+00 0.000E+00 0.000E+00
   0.268E+03 0.664E+02 0.295E+03   -.268E+03 -.664E+02 -.296E+03   0.531E+00 0.179E-01 0.613E+00   0.000E+00 0.000E+00 0.000E+00
   0.341E+03 0.130E+03 0.154E+03   -.342E+03 -.130E+03 -.155E+03   0.756E+00 0.177E+00 0.219E+00   0.000E+00 0.000E+00 0.000E+00
   -.341E+03 -.130E+03 -.154E+03   0.342E+03 0.130E+03 0.155E+03   -.759E+00 -.181E+00 -.221E+00   0.000E+00 0.000E+00 0.000E+00
   -.268E+03 -.664E+02 -.295E+03   0.268E+03 0.664E+02 0.296E+03   -.530E+00 -.138E-01 -.610E+00   0.000E+00 0.000E+00 0.000E+00
   -.311E+03 -.198E+03 0.155E+03   0.312E+03 0.198E+03 -.156E+03   -.696E+00 -.296E+00 0.281E+00   0.000E+00 0.000E+00 0.000E+00
   -.206E+03 -.189E+03 0.282E+03   0.206E+03 0.190E+03 -.283E+03   -.386E+00 -.296E+00 0.645E+00   0.000E+00 0.000E+00 0.000E+00
   0.919E+01 0.360E+02 -.398E+03   -.912E+01 -.362E+02 0.399E+03   -.733E-01 0.157E+00 -.795E+00   0.000E+00 0.000E+00 0.000E+00
   0.176E+03 0.707E+02 -.355E+03   -.176E+03 -.710E+02 0.356E+03   0.375E+00 0.258E+00 -.663E+00   0.000E+00 0.000E+00 0.000E+00
   0.993E+02 -.121E+03 0.364E+03   -.994E+02 0.121E+03 -.364E+03   0.102E+00 -.189E+00 0.783E+00   0.000E+00 0.000E+00 0.000E+00
   0.249E+03 -.687E+02 0.311E+03   -.250E+03 0.687E+02 -.312E+03   0.522E+00 -.269E-01 0.616E+00   0.000E+00 0.000E+00 0.000E+00
   0.363E+03 0.761E+02 -.120E+03   -.363E+03 -.764E+02 0.120E+03   0.717E+00 0.265E+00 -.275E+00   0.000E+00 0.000E+00 0.000E+00
   0.378E+03 0.381E+02 0.541E+02   -.378E+03 -.382E+02 -.543E+02   0.773E+00 0.155E+00 0.188E+00   0.000E+00 0.000E+00 0.000E+00
   -.273E+03 -.278E+03 -.101E+03   0.274E+03 0.279E+03 0.101E+03   -.543E+00 -.585E+00 -.935E-01   0.000E+00 0.000E+00 0.000E+00
   -.258E+03 -.310E+03 0.333E+02   0.259E+03 0.311E+03 -.333E+02   -.536E+00 -.602E+00 -.546E-01   0.000E+00 0.000E+00 0.000E+00
   -.145E+03 -.169E+03 -.325E+03   0.145E+03 0.170E+03 0.326E+03   -.178E+00 -.323E+00 -.715E+00   0.000E+00 0.000E+00 0.000E+00
   -.163E+02 -.120E+03 -.375E+03   0.164E+02 0.120E+03 0.376E+03   -.140E+00 -.308E+00 -.738E+00   0.000E+00 0.000E+00 0.000E+00
   -.783E+02 -.297E+03 0.234E+03   0.784E+02 0.297E+03 -.235E+03   -.382E-01 -.610E+00 0.542E+00   0.000E+00 0.000E+00 0.000E+00
   0.621E+02 -.264E+03 0.271E+03   -.621E+02 0.265E+03 -.272E+03   0.333E-02 -.593E+00 0.543E+00   0.000E+00 0.000E+00 0.000E+00
   0.250E+03 -.697E+02 -.310E+03   -.251E+03 0.699E+02 0.310E+03   0.588E+00 -.148E+00 -.526E+00   0.000E+00 0.000E+00 0.000E+00
   0.333E+03 -.740E+02 -.204E+03   -.333E+03 0.742E+02 0.205E+03   0.621E+00 -.150E+00 -.498E+00   0.000E+00 0.000E+00 0.000E+00
   0.302E+03 -.182E+03 0.189E+03   -.303E+03 0.183E+03 -.189E+03   0.688E+00 -.331E+00 0.289E+00   0.000E+00 0.000E+00 0.000E+00
   0.358E+03 -.138E+03 0.744E+02   -.359E+03 0.138E+03 -.746E+02   0.698E+00 -.317E+00 0.246E+00   0.000E+00 0.000E+00 0.000E+00
   -.149E+03 -.301E+03 -.204E+03   0.149E+03 0.301E+03 0.204E+03   -.188E+00 -.677E+00 -.397E+00   0.000E+00 0.000E+00 0.000E+00
   -.113E+03 -.374E+03 0.845E+02   0.113E+03 0.374E+03 -.847E+02   -.131E+00 -.795E+00 0.112E+00   0.000E+00 0.000E+00 0.000E+00
   0.136E+03 -.189E+03 -.316E+03   -.136E+03 0.189E+03 0.316E+03   0.265E+00 -.505E+00 -.569E+00   0.000E+00 0.000E+00 0.000E+00
   0.192E+03 -.306E+03 0.165E+03   -.193E+03 0.307E+03 -.165E+03   0.362E+00 -.676E+00 0.237E+00   0.000E+00 0.000E+00 0.000E+00
   0.330E+03 -.206E+03 -.838E+02   -.330E+03 0.207E+03 0.840E+02   0.614E+00 -.510E+00 -.183E+00   0.000E+00 0.000E+00 0.000E+00
   -.230E+02 -.358E+03 -.154E+03   0.231E+02 0.359E+03 0.155E+03   -.154E+00 -.700E+00 -.381E+00   0.000E+00 0.000E+00 0.000E+00
   -.303E+01 -.401E+03 0.103E+01   0.313E+01 0.401E+03 -.111E+01   -.970E-01 -.799E+00 0.831E-01   0.000E+00 0.000E+00 0.000E+00
   0.133E+03 -.297E+03 -.215E+03   -.134E+03 0.298E+03 0.216E+03   0.265E+00 -.537E+00 -.543E+00   0.000E+00 0.000E+00 0.000E+00
   0.164E+03 -.366E+03 0.425E+02   -.164E+03 0.367E+03 -.427E+02   0.354E+00 -.698E+00 0.208E+00   0.000E+00 0.000E+00 0.000E+00
   0.244E+03 -.308E+03 -.915E+02   -.245E+03 0.308E+03 0.917E+02   0.577E+00 -.531E+00 -.182E+00   0.000E+00 0.000E+00 0.000E+00
 -----------------------------------------------------------------------------------------------
   -.246E-02 0.225E-02 0.159E-02   -.995E-12 0.233E-11 -.597E-12   0.245E-02 -.226E-02 -.159E-02   0.000E+00 0.000E+00 0.000E+00
 
 
 POSITION                                       TOTAL-FORCE (eV/Angst)
 -----------------------------------------------------------------------------------
      9.08385      7.14729     -0.84666        -0.002016      0.000332      0.005883
      8.39663      6.64836      0.33235        -0.000236      0.000263     -0.005428
      8.13701      7.15325     -1.94866         0.007415      0.003068     -0.000876
      7.02559      6.34548     -0.04135         0.000674      0.002529      0.000600
      6.86521      6.65775     -1.45120        -0.000140      0.001918      0.000089
     10.02350      8.17677     -0.72540        -0.010636      0.005472      0.003686
      8.67392      7.19795      1.58844        -0.000126     -0.006071      0.007757
      8.16473      8.18918     -2.88828         0.001664     -0.000639     -0.003094
      5.98297      6.60310      0.85512         0.002420      0.006218     -0.004421
      5.66860      7.21677     -1.91241         0.001729     -0.004209     -0.000101
     10.31114      8.74730      0.57941         0.001208      0.006495      0.007449
      9.64963      8.26688      1.71481        -0.005521      0.002195     -0.006132
     10.05175      9.25291     -1.70130        -0.004338     -0.003302     -0.002899
      9.13974      9.25869     -2.76176        -0.000235      0.002173     -0.013436
      7.59111      7.46529      2.51974         0.000850     -0.000186     -0.001221
      6.27105      7.17345      2.16005         0.002398      0.005741     -0.003960
      6.92197      8.76910     -3.36779        -0.001521     -0.004465      0.000625
      5.69727      8.29188     -2.88905         0.000535      0.005344     -0.000800
      4.74050      7.18395      0.37577        -0.004739     -0.001771      0.006884
      4.58624      7.48503     -0.98154        -0.004291     -0.008295      0.004688
     10.51789     10.17559      0.40939        -0.003153     -0.002856      0.002850
     10.35729     10.48813     -1.00024         0.001843     -0.004120     -0.000158
      9.16920      9.19561      2.72367        -0.003101      0.001674     -0.001808
      7.89706      8.70017      3.22145         0.004975      0.002845     -0.007665
      8.49950     10.49957     -3.16344         0.004139     -0.004980     -0.001752
      7.12893     10.19693     -3.53793        -0.004290      0.004745      0.000709
      5.20637      8.10648      2.48706        -0.003230     -0.006782     -0.003579
      4.26010      8.11241      1.38471        -0.001492      0.002274     -0.005562
      4.63221      9.22449     -2.56180         0.001320      0.001111      0.002830
      3.94553      8.72561     -1.38256         0.000230     -0.002410     -0.006536
     10.05512     11.06970      1.38054        -0.002457     -0.000125      0.002984
      9.36806     10.57047      2.55934         0.000087      0.004262      0.000041
      9.74030     11.68285     -1.38637         0.001830     -0.000465      0.000984
      8.79414     11.68886     -2.48873         0.000219      0.002482     -0.001877
      6.87164      9.59830      3.53634         0.000457     -0.006692     -0.005853
      5.50104      9.29578      3.16163        -0.004692      0.003432      0.004097
      6.10345     11.09492     -3.22316        -0.003424     -0.000442      0.004781
      4.83126     10.59945     -2.72578         0.001377     -0.003753      0.001245
      3.64303      9.30705      0.99842         0.001080      0.007172     -0.003267
      3.48262      9.61951     -0.41136         0.001561      0.003987     -0.003926
      9.41430     12.31042      0.97951         0.004930      0.005503     -0.004457
      9.25999     12.61161     -0.37774         0.004704     -0.001201     -0.006302
      8.30291     11.50291      2.88629         0.001558      0.000887      0.005896
      7.07842     11.02599      3.36552         0.001719      0.009489     -0.001572
      7.72933     12.62184     -2.16197        -0.000597     -0.006970      0.002576
      6.40929     12.32996     -2.52165        -0.001905     -0.002546     -0.003009
      4.86072     10.53658      2.75981         0.000191      0.000715      0.008839
      3.94884     10.54242      1.69917         0.001506      0.000212      0.002801
      4.35064     11.52826     -1.71711         0.004393     -0.004177      0.006377
      3.68908     11.04777     -0.58174         0.001580     -0.005131     -0.003988
      8.33170     12.57837      1.91005        -0.003604      0.003313      0.001501
      8.01736     13.19218     -0.85721        -0.001170     -0.003035      0.006022
      5.83575     11.60610      2.88578        -0.002929     -0.005040      0.008135
      5.32622     12.59739     -1.59078         0.001202      0.002751     -0.010962
      3.97701     11.61836      0.72299         0.006282     -0.008204     -0.001772
      7.13506     13.13745      1.44879         0.000316     -0.003055      0.000173
      6.97458     13.44979      0.03901         0.003028     -0.001541      0.000104
      5.86326     12.64181      1.94601        -0.003148     -0.001561      0.004861
      5.60360     13.14681     -0.33485         0.002104      0.004557      0.009700
      4.91653     12.64779      0.84399         0.001466      0.000865      0.001245
 -----------------------------------------------------------------------------------
    total drift:                               -0.000007     -0.000009      0.000005


--------------------------------------------------------------------------------------------------------



  FREE ENERGIE OF THE ION-ELECTRON SYSTEM (eV)
  ---------------------------------------------------
  free  energy   TOTEN  =      -531.11690224 eV

  energy  without entropy=     -531.11690224  energy(sigma->0) =     -531.11690224
 


--------------------------------------------------------------------------------------------------------


    POTLOK:  cpu time      1.1870: real time      1.1885


--------------------------------------------------------------------------------------------------------


     LOOP+:  cpu time   2257.3618: real time   2264.8874
    4ORBIT:  cpu time      0.0000: real time      0.0000

 total amount of memory used by VASP MPI-rank0   230629. kBytes
=======================================================================

   base      :      30000. kBytes
   nonl-proj :      75661. kBytes
   fftplans  :      52487. kBytes
   grid      :      66348. kBytes
   one-center:        184. kBytes
   wavefun   :       5949. kBytes
 
  
  
 General timing and accounting informations for this job:
 ========================================================
  
                  Total CPU time used (sec):     2263.615
                            User time (sec):     2248.381
                          System time (sec):       15.234
                         Elapsed time (sec):     2271.420
  
                   Maximum memory used (kb):      557120.
                   Average memory used (kb):          N/A
  
                          Minor page faults:       944022
                          Major page faults:            0
                 Voluntary context switches:        25906
