 vasp.6.4.3 19Mar24 (build Jun 01 2024 10:57:29) complex                        
  
 executed on             LinuxIFC date 2026.01.16  01:56:07
 running   32 mpi-ranks, on    1 nodes
 distrk:  each k-point on   32 cores,    1 groups
 distr:  one band on NCORE=   1 cores,   32 groups


--------------------------------------------------------------------------------------------------------


 INCAR:
   SYSTEM = C60 BEC example8 L-14 mz
   ENCUT = 520
   PREC = Accurate
   EDIFF = 1E-8
   NELM = 200
   ALGO = Normal
   LREAL = .FALSE.
   ADDGRID = .TRUE.
   LASPH = .TRUE.
   ISMEAR = 0
   SIGMA = 0.05
   NSW = 0
   IBRION = -1
   ISYM = 0
   LCALCEPS = .TRUE.
   LPEAD = .TRUE.
   LWAVE = .FALSE.
   LCHARG = .FALSE.
   EFIELD_PEAD = 0.0100 0.0100 -0.1414

 POTCAR:    PAW_PBE C 08Apr2002                   
 -----------------------------------------------------------------------------
|                                                                             |
|           W    W    AA    RRRRR   N    N  II  N    N   GGGG   !!!           |
|           W    W   A  A   R    R  NN   N  II  NN   N  G    G  !!!           |
|           W    W  A    A  R    R  N N  N  II  N N  N  G       !!!           |
|           W WW W  AAAAAA  RRRRR   N  N N  II  N  N N  G  GGG   !            |
|           WW  WW  A    A  R   R   N   NN  II  N   NN  G    G                |
|           W    W  A    A  R    R  N    N  II  N    N   GGGG   !!!           |
|                                                                             |
|     For optimal performance we recommend to set                             |
|       NCORE = 2 up to number-of-cores-per-socket                            |
|     NCORE specifies how many cores store one orbital (NPAR=cpu/NCORE).      |
|     This setting can greatly improve the performance of VASP for DFT.       |
|     The default, NCORE=1 might be grossly inefficient on modern             |
|     multi-core architectures or massively parallel machines. Do your        |
|     own testing! More info at https://www.vasp.at/wiki/index.php/NCORE      |
|     Unfortunately you need to use the default for GW and RPA                |
|     calculations (for HF NCORE is supported but not extensively tested      |
|     yet).                                                                   |
|                                                                             |
 -----------------------------------------------------------------------------

 POTCAR:    PAW_PBE C 08Apr2002                   
   VRHFIN =C: s2p2                                                                                  
   LEXCH  = PE                                                                                      
   EATOM  =   147.1560 eV,   10.8157 Ry                                                             
                                                                                                    
   TITEL  = PAW_PBE C 08Apr2002                                                                     
   LULTRA =        F    use ultrasoft PP ?                                                          
   IUNSCR =        1    unscreen: 0-lin 1-nonlin 2-no                                               
   RPACOR =    1.200    partial core radius                                                         
   POMASS =   12.011; ZVAL   =    4.000    mass and valenz                                          
   RCORE  =    1.500    outmost cutoff radius                                                       
   RWIGS  =    1.630; RWIGS  =    0.863    wigner-seitz radius (au A)                               
   ENMAX  =  400.000; ENMIN  =  300.000 eV                                                          
   ICORE  =        2    local potential                                                             
   LCOR   =        T    correct aug charges                                                         
   LPAW   =        T    paw PP                                                                      
   EAUG   =  644.873                                                                                
   DEXC   =    0.000                                                                                
   RMAX   =    1.529    core radius for proj-oper                                                   
   RAUG   =    1.300    factor for augmentation sphere                                              
   RDEP   =    1.501    radius for radial grids                                                     
   RDEPT  =    1.300    core radius for aug-charge                                                  
                                                                                                    
   Atomic configuration                                                                             
    4 entries                                                                                       
     n  l   j            E        occ.                                                              
     1  0  0.50      -273.3789   2.0000                                                             
     2  0  0.50       -13.7508   2.0000                                                             
     2  1  0.50        -5.2854   2.0000                                                             
     3  2  1.50        -5.4423   0.0000                                                             
   Description                                                                                      
     l       E           TYP  RCUT    TYP  RCUT                                                     
     0    -13.7508458     23  1.200                                                                 
     0     -8.2022199     23  1.200                                                                 
     1     -5.2854383     23  1.500                                                                 
     1     34.0145650     23  1.500                                                                 
     2     -5.4423304      7  1.500                                                                 
  local pseudopotential read in
  partial core-charges read in
  partial kinetic energy density read in
  atomic valenz-charges read in
  non local Contribution for L=           0  read in
    real space projection operators read in
  non local Contribution for L=           0  read in
    real space projection operators read in
  non local Contribution for L=           1  read in
    real space projection operators read in
  non local Contribution for L=           1  read in
    real space projection operators read in
    PAW grid and wavefunctions read in
 
   number of l-projection  operators is LMAX  =           4
   number of lm-projection operators is LMMAX =           8
 
 -----------------------------------------------------------------------------
|                                                                             |
|               ----> ADVICE to this user running VASP <----                  |
|                                                                             |
|     You have a (more or less) 'large supercell' and for larger cells it     |
|     might be more efficient to use real-space projection operators.         |
|     Therefore, try LREAL= Auto in the INCAR file.                           |
|     Mind: For very accurate calculation, you might also keep the            |
|     reciprocal projection scheme (i.e. LREAL=.FALSE.).                      |
|                                                                             |
 -----------------------------------------------------------------------------

  PAW_PBE C 08Apr2002                   :
 energy of atom  1       EATOM= -147.1560
 kinetic energy error for atom=    0.0071 (will be added to EATOM!!)
 
 
 POSCAR: C60 | isolated, centered, L=14.0 Å, vac
  positions in direct lattice
  No initial velocities read in


 exchange-correlation table for PE
   RHO(1)=    0.500       N(1)  =     2000
   RHO(2)=  100.500       N(2)  =     4000
 


--------------------------------------------------------------------------------------------------------


 ion  position               nearest neighbor table
   1  0.649  0.404  0.318-   6 1.40   3 1.45   2 1.45
   2  0.600  0.319  0.353-   7 1.40   4 1.45   1 1.45
   3  0.581  0.460  0.263-   8 1.40   5 1.45   1 1.45
   4  0.502  0.323  0.318-   9 1.40   5 1.45   2 1.45
   5  0.490  0.410  0.263-  10 1.40   3 1.45   4 1.45
   6  0.716  0.450  0.376-   1 1.40  11 1.45  13 1.45
   7  0.620  0.283  0.444-   2 1.40  12 1.45  15 1.45
   8  0.583  0.559  0.268-   3 1.40  14 1.45  17 1.45
   9  0.427  0.290  0.377-   4 1.40  19 1.45  16 1.45
  10  0.405  0.461  0.268-   5 1.40  20 1.45  18 1.45
  11  0.737  0.413  0.471-  12 1.40   6 1.45  21 1.45
  12  0.689  0.331  0.504-  11 1.40   7 1.45  23 1.45
  13  0.718  0.553  0.381-  14 1.40  22 1.45   6 1.45
  14  0.653  0.607  0.328-  13 1.40   8 1.45  25 1.45
  15  0.542  0.250  0.504-  16 1.40  24 1.45   7 1.45
  16  0.448  0.253  0.471-  15 1.40  27 1.45   9 1.45
  17  0.494  0.613  0.273-  18 1.40  26 1.45   8 1.45
  18  0.407  0.565  0.273-  17 1.40  10 1.45  29 1.45
  19  0.339  0.344  0.382-  20 1.40  28 1.45   9 1.45
  20  0.328  0.428  0.328-  19 1.40  10 1.45  30 1.45
  21  0.751  0.493  0.535-  31 1.40  22 1.45  11 1.45
  22  0.740  0.580  0.479-  33 1.40  21 1.45  13 1.45
  23  0.655  0.327  0.602-  32 1.40  12 1.45  24 1.45
  24  0.564  0.277  0.602-  35 1.40  15 1.45  23 1.45
  25  0.607  0.690  0.371-  34 1.40  26 1.45  14 1.45
  26  0.509  0.694  0.336-  37 1.40  25 1.45  17 1.45
  27  0.372  0.284  0.535-  36 1.40  28 1.45  16 1.45
  28  0.304  0.340  0.480-  39 1.40  27 1.45  19 1.45
  29  0.331  0.595  0.337-  38 1.40  30 1.45  18 1.45
  30  0.282  0.511  0.371-  40 1.40  20 1.45  29 1.45
  31  0.718  0.489  0.629-  21 1.40  41 1.45  32 1.45
  32  0.669  0.405  0.663-  23 1.40  31 1.45  43 1.45
  33  0.696  0.660  0.520-  22 1.40  34 1.45  42 1.45
  34  0.628  0.716  0.465-  25 1.40  33 1.45  45 1.45
  35  0.491  0.306  0.663-  24 1.40  44 1.45  36 1.45
  36  0.393  0.310  0.629-  27 1.40  35 1.45  47 1.45
  37  0.436  0.723  0.398-  26 1.40  46 1.45  38 1.45
  38  0.345  0.673  0.398-  29 1.40  49 1.45  37 1.45
  39  0.260  0.420  0.521-  28 1.40  48 1.45  40 1.45
  40  0.249  0.507  0.465-  30 1.40  39 1.45  50 1.45
  41  0.672  0.572  0.671-  42 1.40  51 1.45  31 1.45
  42  0.661  0.656  0.618-  41 1.40  33 1.45  52 1.45
  43  0.593  0.435  0.727-  44 1.40  51 1.45  32 1.45
  44  0.506  0.387  0.727-  43 1.40  35 1.45  53 1.45
  45  0.552  0.747  0.528-  46 1.40  52 1.45  34 1.45
  46  0.458  0.750  0.495-  45 1.40  37 1.45  54 1.45
  47  0.347  0.393  0.672-  48 1.40  53 1.45  36 1.45
  48  0.282  0.447  0.618-  47 1.40  39 1.45  55 1.45
  49  0.311  0.669  0.496-  50 1.40  54 1.45  38 1.45
  50  0.264  0.587  0.529-  49 1.40  55 1.45  40 1.45
  51  0.595  0.539  0.732-  56 1.40  41 1.45  43 1.45
  52  0.573  0.710  0.623-  57 1.40  45 1.45  42 1.45
  53  0.417  0.440  0.732-  58 1.40  47 1.45  44 1.45
  54  0.380  0.717  0.556-  59 1.40  49 1.45  46 1.45
  55  0.284  0.550  0.623-  60 1.40  50 1.45  48 1.45
  56  0.510  0.590  0.737-  51 1.40  58 1.45  57 1.45
  57  0.498  0.677  0.681-  52 1.40  56 1.45  59 1.45
  58  0.419  0.540  0.737-  53 1.40  56 1.45  60 1.45
  59  0.400  0.681  0.647-  54 1.40  60 1.45  57 1.45
  60  0.351  0.596  0.681-  55 1.40  59 1.45  58 1.45
 

IMPORTANT INFORMATION: All symmetrisations will be switched off!
NOSYMM: (Re-)initialisation of all symmetry stuff for point group C_1.


----------------------------------------------------------------------------------------

                                     Primitive cell                                     

  volume of cell :    2744.0000

  direct lattice vectors                    reciprocal lattice vectors
     9.899494937  0.000000000  9.899494937     0.050507627  0.000000000  0.050507627
     0.000000000 14.000000000  0.000000000     0.000000000  0.071428571  0.000000000
    -9.899494937  0.000000000  9.899494937    -0.050507627  0.000000000  0.050507627

  length of vectors
    14.000000000 14.000000000 14.000000000     0.071428571  0.071428571  0.071428571

  position of ions in fractional coordinates (direct lattice)
     0.648846297  0.403755720  0.318229930
     0.599759418  0.319006451  0.352579141
     0.581214867  0.459715760  0.262871689
     0.501827740  0.322583737  0.318406897
     0.490371812  0.409563572  0.262970726
     0.715964597  0.449627468  0.376350615
     0.619565770  0.283322667  0.443779792
     0.583194916  0.559495909  0.267735791
     0.427355172  0.290316628  0.376697176
     0.404899942  0.461093436  0.267910517
     0.736509976  0.412540453  0.471069816
     0.689259118  0.330929882  0.504151426
     0.717982347  0.553271002  0.381413898
     0.652838375  0.607124448  0.328144300
     0.542222218  0.249788057  0.504319797
     0.447932353  0.253215088  0.471412596
     0.494426259  0.613005467  0.272807192
     0.406947807  0.564722693  0.272884160
     0.338607034  0.343865235  0.381823353
     0.327588766  0.427626345  0.328475588
     0.751277685  0.493267774  0.534622278
     0.739806195  0.580250170  0.479211055
     0.654943088  0.326882400  0.602014685
     0.564075845  0.276717303  0.602132414
     0.607107183  0.690086333  0.370530783
     0.509209007  0.693714954  0.336330545
     0.371883226  0.283823690  0.535054914
     0.304292831  0.339800467  0.479676966
     0.330872211  0.595297165  0.336516754
     0.281823266  0.510539506  0.370880212
     0.718223068  0.489376590  0.628831996
     0.669147385  0.404623268  0.663155726
     0.695735641  0.660095243  0.520050836
     0.628153146  0.716076396  0.464676993
     0.490831425  0.306175080  0.663399729
     0.392931172  0.309821376  0.629194218
     0.435960504  0.723172250  0.397584165
     0.345090119  0.673026114  0.397680484
     0.260216127  0.419649363  0.520504744
     0.248758320  0.506635557  0.465081746
     0.672450297  0.572297374  0.671242330
     0.661428159  0.656061342  0.617904155
     0.593064847  0.435204741  0.726764416
     0.505601742  0.386912206  0.726880734
     0.552094808  0.746695097  0.528303146
     0.457806378  0.750119696  0.495394333
     0.347193934  0.392786018  0.671569253
     0.282060326  0.446651226  0.618293655
     0.310759811  0.668992112  0.495538292
     0.263505641  0.587378694  0.528614584
     0.595121498  0.538831695  0.731775987
     0.572668742  0.709600964  0.623010104
     0.416839288  0.440442638  0.731950245
     0.380444356  0.716610770  0.555917352
     0.284072451  0.550299078  0.623332590
     0.509647233  0.590366368  0.736716258
     0.498184532  0.677346679  0.681286888
     0.418804147  0.540219676  0.736795970
     0.400257455  0.680926465  0.647101716
     0.351180562  0.596181860  0.681438200

  ion indices of the primitive-cell ions
   primitive index   ion index
                 1           1
                 2           2
                 3           3
                 4           4
                 5           5
                 6           6
                 7           7
                 8           8
                 9           9
                10          10
                11          11
                12          12
                13          13
                14          14
                15          15
                16          16
                17          17
                18          18
                19          19
                20          20
                21          21
                22          22
                23          23
                24          24
                25          25
                26          26
                27          27
                28          28
                29          29
                30          30
                31          31
                32          32
                33          33
                34          34
                35          35
                36          36
                37          37
                38          38
                39          39
                40          40
                41          41
                42          42
                43          43
                44          44
                45          45
                46          46
                47          47
                48          48
                49          49
                50          50
                51          51
                52          52
                53          53
                54          54
                55          55
                56          56
                57          57
                58          58
                59          59
                60          60

----------------------------------------------------------------------------------------

 
 
 KPOINTS: Automatic mesh                          

Automatic generation of k-mesh.
 Grid dimensions read from file:
 generate k-points for:    1    1    1

 Generating k-lattice:

  Cartesian coordinates                     Fractional coordinates (reciprocal lattice)
     0.050507627  0.000000000  0.050507627     1.000000000  0.000000000  0.000000000
     0.000000000  0.071428571  0.000000000     0.000000000  1.000000000  0.000000000
    -0.050507627  0.000000000  0.050507627     0.000000000  0.000000000  1.000000000

  Length of vectors
     0.071428571  0.071428571  0.071428571

  Shift w.r.t. Gamma in fractional coordinates (k-lattice)
     0.000000000  0.000000000  0.000000000

 
 Subroutine IBZKPT returns following result:
 ===========================================
 
 Found      1 irreducible k-points:
 
 Following reciprocal coordinates:
            Coordinates               Weight
  0.000000  0.000000  0.000000      1.000000
 
 Following cartesian coordinates:
            Coordinates               Weight
  0.000000  0.000000  0.000000      1.000000
 
 
 Subroutine IBZKPT_HF returns following result:
 ==============================================
 
 Found      1 k-points in 1st BZ
 the following      1 k-points will be used (e.g. in the exchange kernel)
 Following reciprocal coordinates:   # in IRBZ
  0.000000  0.000000  0.000000    1.00000000   1 t-inv F


--------------------------------------------------------------------------------------------------------




 Dimension of arrays:
   k-points           NKPTS =      1   k-points in BZ     NKDIM =      1   number of bands    NBANDS=    160
   number of dos      NEDOS =    301   number of ions     NIONS =     60
   non local maximal  LDIM  =      4   non local SUM 2l+1 LMDIM =      8
   total plane-waves  NPLWV = ******
   max r-space proj   IRMAX =      1   max aug-charges    IRDMAX=  43535
   dimension x,y,z NGX =   108 NGY =  108 NGZ =  108
   dimension x,y,z NGXF=   216 NGYF=  216 NGZF=  216
   support grid    NGXF=   432 NGYF=  432 NGZF=  432
   ions per type =              60
   NGX,Y,Z   is equivalent  to a cutoff of  12.82, 12.82, 12.82 a.u.
   NGXF,Y,Z  is equivalent  to a cutoff of  25.65, 25.65, 25.65 a.u.

 SYSTEM =  C60 BEC example8 L-14 mz                
 POSCAR =  C60 | isolated, centered, L=14.0 Å, vac

 Startparameter for this run:
   NWRITE =      2    write-flag & timer
   PREC   = accura    normal or accurate (medium, high low for compatibility)
   ISTART =      0    job   : 0-new  1-cont  2-samecut
   ICHARG =      2    charge: 1-file 2-atom 10-const
   ISPIN  =      1    spin polarized calculation?
   LNONCOLLINEAR =      F non collinear calculations
   LSORBIT =      F    spin-orbit coupling
   INIWAV =      1    electr: 0-lowe 1-rand  2-diag
   LASPH  =      T    aspherical Exc in radial PAW
 Electronic Relaxation 1
   ENCUT  =  520.0 eV  38.22 Ry    6.18 a.u.  26.03 26.03 26.03*2*pi/ulx,y,z
   ENINI  =  520.0     initial cutoff
   ENAUG  =  644.9 eV  augmentation charge cutoff
   NELM   =    200;   NELMIN=  2; NELMDL= -5     # of ELM steps 
   EDIFF  = 0.1E-07   stopping-criterion for ELM
   LREAL  =      F    real-space projection
   NLSPLINE    = F    spline interpolate recip. space projectors
   LCOMPAT=      F    compatible to vasp.4.4
   GGA_COMPAT  = T    GGA compatible to vasp.4.4-vasp.4.6
   LMAXPAW     = -100 max onsite density
   LMAXMIX     =    2 max onsite mixed and CHGCAR
   VOSKOWN=      0    Vosko Wilk Nusair interpolation
   ROPT   =    0.00000
 Ionic relaxation
   EDIFFG = 0.1E-06   stopping-criterion for IOM
   NSW    =      0    number of steps for IOM
   NBLOCK =      1;   KBLOCK =      1    inner block; outer block 
   IBRION =     -1    ionic relax: 0-MD 1-quasi-New 2-CG
   NFREE  =      0    steps in history (QN), initial steepest desc. (CG)
   ISIF   =      2    stress and relaxation
   IWAVPR =     10    prediction:  0-non 1-charg 2-wave 3-comb
   ISYM   =      0    0-nonsym 1-usesym 2-fastsym
   LCORR  =      T    Harris-Foulkes like correction to forces

   POTIM  = 0.5000    time-step for ionic-motion
   TEIN   =    0.0    initial temperature
   TEBEG  =    0.0;   TEEND  =   0.0 temperature during run
   SMASS  =  -3.00    Nose mass-parameter (am)
   estimated Nose-frequenzy (Omega)   =  0.10E-29 period in steps = 0.13E+47 mass=  -0.448E-26a.u.
   SCALEE = 1.0000    scale energy and forces
   NPACO  =    256;   APACO  = 10.0  distance and # of slots for P.C.
   PSTRESS=    0.0 pullay stress

  Mass of Ions in am
   POMASS =  12.01
  Ionic Valenz
   ZVAL   =   4.00
  Atomic Wigner-Seitz radii
   RWIGS  =  -1.00
  virtual crystal weights 
   VCA    =   1.00
   NELECT =     240.0000    total number of electrons
   NUPDOWN=      -1.0000    fix difference up-down

 DOS related values:
   EMIN   =  10.00;   EMAX   =-10.00  energy-range for DOS
   EFERMI =   0.00;   METHOD = LEGACY      
   ISMEAR =     0;   SIGMA  =   0.05  broadening in eV -4-tet -1-fermi 0-gaus

 Electronic relaxation 2 (details)
   IALGO  =     38    algorithm
   LDIAG  =      T    sub-space diagonalisation (order eigenvalues)
   LSUBROT=      F    optimize rotation matrix (better conditioning)
   TURBO    =      0    0=normal 1=particle mesh
   IRESTART =      0    0=no restart 2=restart with 2 vectors
   NREBOOT  =      0    no. of reboots
   NMIN     =      0    reboot dimension
   EREF     =   0.00    reference energy to select bands
   IMIX   =      4    mixing-type and parameters
     AMIX     =   0.40;   BMIX     =  1.00
     AMIX_MAG =   1.60;   BMIX_MAG =  1.00
     AMIN     =   0.10
     WC   =   100.;   INIMIX=   1;  MIXPRE=   1;  MAXMIX= -45

 Intra band minimization:
   WEIMIN = 0.0000     energy-eigenvalue tresh-hold
   EBREAK =  0.16E-10  absolut break condition
   DEPER  =   0.30     relativ break condition  

   TIME   =   0.40     timestep for ELM

  volume/ion in A,a.u.               =      45.73       308.62
  Fermi-wavevector in a.u.,A,eV,Ry     =   0.726692  1.373249  7.184987  0.528082
  Thomas-Fermi vector in A             =   1.817729
 
 Write flags
   LWAVE        =      F    write WAVECAR
   LDOWNSAMPLE  =      F    k-point downsampling of WAVECAR
   LCHARG       =      F    write CHGCAR
   LVTOT        =      F    write LOCPOT, total local potential
   LVHAR        =      F    write LOCPOT, Hartree potential only
   WRT_POTENTIAL= false  ! write potential to hdf5 file
   LELF         =      F    write electronic localiz. function (ELF)
   LORBIT       =      0    0 simple, 1 ext, 2 COOP (PROOUT), +10 PAW based schemes


 Dipole corrections
   LMONO      =      F    monopole corrections only (constant potential shift)
   LDIPOL     =      F    correct potential (dipole corrections)
   IDIPOL     =      0    1-x, 2-y, 3-z, 4-all directions 
   EPSILON    =  1.0000000 bulk dielectric constant
   LVACPOTAV  =      F  vacuum potentials using an averaging scheme for the charge density
   VACPOTFLAT =  0.1000000 required flatness to determine vacuum potential
 Exchange correlation treatment:
   GGA     = PE    functional components
   XC_C    = 1    coefficients multiplying the functional components
   LIBXC   =     F    Libxc                    
   VOSKOWN =     0    Vosko Wilk Nusair interpolation
   LHFCALC =     F    Hartree Fock is set to
   LHFONE  =     F    Hartree Fock one center treatment
   AEXX    =    0.0000 exact exchange contribution

 Parameters of functionals:
   PE:
     No parameter
 
 Van der Waals corrections
   IVDW    =     0    specifies the selected vdW correction

 Linear response parameters
   LEPSILON=     F    determine dielectric tensor
   LRPA    =     F    only Hartree local field effects (RPA)
   LNABLA  =     F    use nabla operator in PAW spheres
   LVEL    =     F    velocity operator in full k-point grid
   CSHIFT  =0.1000    complex shift for real part using Kramers Kronig
   OMEGAMAX=  -1.0    maximum frequency
   DEG_THRESHOLD= 0.2000000E-02 threshold for treating states as degnerate
   RTIME   =   -0.100 relaxation time in fs
  (WPLASMAI=    0.000 imaginary part of plasma frequency in eV, 0.658/RTIME)
   DFIELD  = 0.0000000 0.0000000 0.0000000 field for delta impulse in time
 
  Optional k-point grid parameters
   LKPOINTS_OPT  =     F    use optional k-point grid
   KPOINTS_OPT_MODE=     1    mode for optional k-point grid
 
 Orbital magnetization related:
   ORBITALMAG=     F  switch on orbital magnetization
   LCHIMAG   =     F  perturbation theory with respect to B field
   DQ        =  0.001000  dq finite difference perturbation B field
   LLRAUG    =     F  two centre corrections for induced B field
   LBONE     =     F  B-component reconstruction in AE one-centre
   LVGVCALC  =     T  calculate vGv susceptibility
   LVGVAPPL  =     F  apply vGv susceptibility instead of pGv for G=0

 PEAD related settings:
   LPEAD      =     T    switch on PEAD
   IPEAD      =     4    finite difference order for dpsi/dk
   LCALCPOL   =     F    calculate macroscopic polarization
   LCALCEPS   =     T    calculate dielectric tensor
   EFIELD_PEAD=    0.0100    0.0100   -0.1414
   SKIP_EDOTP =     F
   LRPA       =     F
   SKIP_SCF   =     F
 Random number generation:
   RANDOM_GENERATOR = DEFAULT
   PCG_SEED         = not used


--------------------------------------------------------------------------------------------------------


 Static calculation
 charge density and potential will be updated during run
 non-spin polarized calculation
 Variant of blocked Davidson
 Davidson routine will perform the subspace rotation
 perform sub-space diagonalisation
    after iterative eigenvector-optimisation
 modified Broyden-mixing scheme, WC =      100.0
 initial mixing is a Kerker type mixing with AMIX =  0.4000 and BMIX =      1.0000
 Hartree-type preconditioning will be used
 using additional bands           40
 reciprocal scheme for non local part
 use partial core corrections
 calculate Harris-corrections to forces 
   (improved forces if not selfconsistent)
 use gradient corrections 
 use of overlap-Matrix (Vanderbilt PP)
 Gauss-broadening in eV      SIGMA  =   0.05


--------------------------------------------------------------------------------------------------------


  energy-cutoff  :      520.00
  volume of cell :     2744.00
      direct lattice vectors                 reciprocal lattice vectors
      9.899494937   0.000000000   9.899494937      0.050507627   0.000000000   0.050507627
      0.000000000  14.000000000   0.000000000      0.000000000   0.071428571   0.000000000
     -9.899494937   0.000000000   9.899494937     -0.050507627   0.000000000   0.050507627

  length of vectors
     14.000000000  14.000000000  14.000000000      0.071428571   0.071428571   0.071428571


 
 k-points in units of 2pi/SCALE and weight: Automatic mesh                          
   0.00000000  0.00000000  0.00000000       1.000
 
 k-points in reciprocal lattice and weights: Automatic mesh                          
   0.00000000  0.00000000  0.00000000       1.000
 
 position of ions in fractional coordinates (direct lattice) 
   0.64884630  0.40375572  0.31822993
   0.59975942  0.31900645  0.35257914
   0.58121487  0.45971576  0.26287169
   0.50182774  0.32258374  0.31840690
   0.49037181  0.40956357  0.26297073
   0.71596460  0.44962747  0.37635061
   0.61956577  0.28332267  0.44377979
   0.58319492  0.55949591  0.26773579
   0.42735517  0.29031663  0.37669718
   0.40489994  0.46109344  0.26791052
   0.73650998  0.41254045  0.47106982
   0.68925912  0.33092988  0.50415143
   0.71798235  0.55327100  0.38141390
   0.65283838  0.60712445  0.32814430
   0.54222222  0.24978806  0.50431980
   0.44793235  0.25321509  0.47141260
   0.49442626  0.61300547  0.27280719
   0.40694781  0.56472269  0.27288416
   0.33860703  0.34386524  0.38182335
   0.32758877  0.42762635  0.32847559
   0.75127768  0.49326777  0.53462228
   0.73980620  0.58025017  0.47921105
   0.65494309  0.32688240  0.60201469
   0.56407584  0.27671730  0.60213241
   0.60710718  0.69008633  0.37053078
   0.50920901  0.69371495  0.33633054
   0.37188323  0.28382369  0.53505491
   0.30429283  0.33980047  0.47967697
   0.33087221  0.59529717  0.33651675
   0.28182327  0.51053951  0.37088021
   0.71822307  0.48937659  0.62883200
   0.66914738  0.40462327  0.66315573
   0.69573564  0.66009524  0.52005084
   0.62815315  0.71607640  0.46467699
   0.49083142  0.30617508  0.66339973
   0.39293117  0.30982138  0.62919422
   0.43596050  0.72317225  0.39758416
   0.34509012  0.67302611  0.39768048
   0.26021613  0.41964936  0.52050474
   0.24875832  0.50663556  0.46508175
   0.67245030  0.57229737  0.67124233
   0.66142816  0.65606134  0.61790416
   0.59306485  0.43520474  0.72676442
   0.50560174  0.38691221  0.72688073
   0.55209481  0.74669510  0.52830315
   0.45780638  0.75011970  0.49539433
   0.34719393  0.39278602  0.67156925
   0.28206033  0.44665123  0.61829365
   0.31075981  0.66899211  0.49553829
   0.26350564  0.58737869  0.52861458
   0.59512150  0.53883170  0.73177599
   0.57266874  0.70960096  0.62301010
   0.41683929  0.44044264  0.73195025
   0.38044436  0.71661077  0.55591735
   0.28407245  0.55029908  0.62333259
   0.50964723  0.59036637  0.73671626
   0.49818453  0.67734668  0.68128689
   0.41880415  0.54021968  0.73679597
   0.40025746  0.68092647  0.64710172
   0.35118056  0.59618186  0.68143820
 
 position of ions in cartesian coordinates  (Angst):
   3.27293505  5.65258008  9.57356622
   2.44695990  4.46609031  9.42767074
   3.15143669  6.43602064  8.35603059
   1.81577371  4.51617232  8.11990863
   2.25115590  5.73389001  7.45771063
   3.36200690  6.29478455 10.81336891
   1.74019240  3.96651734 10.52658400
   3.12288601  7.83294272  8.42378422
   0.50148858  4.06443280  7.95971215
   1.35612612  6.45530811  6.66048373
   2.62772352  5.77556634 11.95443004
   1.83247266  4.63301835 11.81416164
   3.33185766  7.74579403 10.88346755
   3.21430735  8.49974227  9.71123303
   0.37521482  3.49703279 10.36023738
  -0.23244255  3.54501123  9.10105066
   2.19391684  8.58207653  7.59522366
   1.32716239  7.90611770  6.72999312
  -0.42781973  4.81411329  7.13189696
  -0.00877910  5.98676883  6.49470575
   2.14477910  6.90574884 12.72976017
   2.57976027  8.12350238 12.06765509
   0.52396445  4.57635360 12.44324711
  -0.37674082  3.87404224 11.54487276
   2.34198687  9.66120866  9.67812209
   1.71140946  9.71200936  8.37041451
  -1.61531730  3.97353166  8.97822953
  -1.73621435  4.75720654  7.76090503
  -0.05587812  8.33416031  6.60681368
  -0.88161878  7.14755308  6.46143478
   0.88492646  6.85127226 13.33516479
   0.05931440  5.66472575 13.18912789
   1.73919083  9.24133340 12.03567207
   1.61833135 10.02506954 10.81846642
  -1.70833905  4.28645111 11.42630546
  -2.33888483  4.33749926 10.11852512
   0.37990638 10.12441149  8.25167123
  -0.52061806  9.42236560  7.35305382
  -2.57672585  5.87509108  7.72874231
  -2.14149267  7.09289780  7.06665612
   0.01195826  8.01216324 13.30187836
   0.43086566  9.18485879 12.66474377
  -1.32355821  6.09286637 13.06564310
  -2.19055027  5.41677088 12.20095403
   0.23552543 10.45373136 10.69539407
  -0.37210176 10.50167575  9.43620562
  -3.21115183  5.49900425 10.08524101
  -3.32854013  6.25311717  8.91304967
  -1.82921363  9.36588957  7.98194399
  -2.62444465  8.22330171  7.84159016
  -1.35281043  7.54364373 13.13561494
  -0.49835406  9.93441350 11.83661668
  -3.11943933  6.16619694 11.37243617
  -1.73709404 10.03255078  9.26950799
  -3.35850403  7.70418709  8.98285161
  -2.24786867  8.26512915 12.33836907
  -1.81262085  9.48285350 11.67617135
  -3.14795844  7.56307546 11.43985751
  -2.44363351  9.53297051 10.36832681
  -3.26938382  8.34654605 10.22240421
 


--------------------------------------------------------------------------------------------------------


 k-point     1 :   0.0000 0.0000 0.0000  plane waves:   73885

 maximum and minimum number of plane-waves per node :     73885    73885

 maximum number of plane-waves:     73885
 maximum index in each direction: 
   IXMAX=   26   IYMAX=   26   IZMAX=   26
   IXMIN=  -26   IYMIN=  -26   IZMIN=  -26


 serial   3D FFT for wavefunctions
 parallel 3D FFT for charge:
    minimum data exchange during FFTs selected (reduces bandwidth)


 total amount of memory used by VASP MPI-rank0   230629. kBytes
=======================================================================

   base      :      30000. kBytes
   nonl-proj :      75661. kBytes
   fftplans  :      52487. kBytes
   grid      :      66348. kBytes
   one-center:        184. kBytes
   wavefun   :       5949. kBytes
 
     INWAV:  cpu time      0.0000: real time      0.0001
 Broyden mixing: mesh for mixing (old mesh)
   NGX = 53   NGY = 53   NGZ = 53
  (NGX  =216   NGY  =216   NGZ  =216)
  gives a total of 148877 points

 initial charge density was supplied:
 charge density of overlapping atoms calculated
 number of electron     240.0000000 magnetization 
 keeping initial charge density in first step


--------------------------------------------------------------------------------------------------------


 Maximum index for augmentation-charges         1466 (set IRDMAX)


--------------------------------------------------------------------------------------------------------


 First call to EWALD:  gamma=   0.127
 Maximum number of real-space cells 3x 3x 3
 Maximum number of reciprocal cells 3x 3x 3

    FEWALD:  cpu time      0.0020: real time      0.0021


--------------------------------------- Ionic step        1  -------------------------------------------




--------------------------------------- Iteration      1(   1)  ---------------------------------------


    POTLOK:  cpu time      0.1792: real time      0.1847
    SETDIJ:  cpu time      0.1894: real time      0.1920
     EDDAV:  cpu time      3.7576: real time      3.8051
       DOS:  cpu time      0.0010: real time      0.0021
    --------------------------------------------
      LOOP:  cpu time      4.1273: real time      4.1839

 eigenvalue-minimisations  :   320
 total energy-change (2. order) : 0.2298061E+04  (-0.8759308E+04)
 number of electron     240.0000000 magnetization 
 augmentation part      240.0000000 magnetization 

 Free energy of the ion-electron system (eV)
  ---------------------------------------------------
  alpha Z        PSCENC =       107.77265948
  Ewald energy   TEWEN  =     24585.34044588
  -Hartree energ DENC   =    -31075.24411798
  -exchange      EXHF   =         0.00000000
  -V(xc)+E(xc)   XCENC  =       788.64363849
  PAW double counting   =      6511.32278280    -6545.48713133
  entropy T*S    EENTRO =        -0.00983771
  eigenvalues    EBANDS =      -903.21116417
  atomic energy  EATOM  =      8828.93359873
  Solvation  Ediel_sol  =         0.00000000
  ---------------------------------------------------
  free energy    TOTEN  =      2298.06087420 eV

  energy without entropy =     2298.07071191  energy(sigma->0) =     2298.06579305


--------------------------------------------------------------------------------------------------------




--------------------------------------- Iteration      1(   2)  ---------------------------------------


     EDDAV:  cpu time      5.4941: real time      5.5118
       DOS:  cpu time      0.0002: real time      0.0002
    --------------------------------------------
      LOOP:  cpu time      5.4943: real time      5.5120

 eigenvalue-minimisations  :   512
 total energy-change (2. order) :-0.2435870E+04  (-0.2365230E+04)
 number of electron     240.0000000 magnetization 
 augmentation part      240.0000000 magnetization 

 Free energy of the ion-electron system (eV)
  ---------------------------------------------------
  alpha Z        PSCENC =       107.77265948
  Ewald energy   TEWEN  =     24585.34044588
  -Hartree energ DENC   =    -31075.24411798
  -exchange      EXHF   =         0.00000000
  -V(xc)+E(xc)   XCENC  =       788.64363849
  PAW double counting   =      6511.32278280    -6545.48713133
  entropy T*S    EENTRO =        -0.00000000
  eigenvalues    EBANDS =     -3339.09050666
  atomic energy  EATOM  =      8828.93359873
  Solvation  Ediel_sol  =         0.00000000
  ---------------------------------------------------
  free energy    TOTEN  =      -137.80863059 eV

  energy without entropy =     -137.80863059  energy(sigma->0) =     -137.80863059


--------------------------------------------------------------------------------------------------------




--------------------------------------- Iteration      1(   3)  ---------------------------------------


     EDDAV:  cpu time      4.3309: real time      4.3536
       DOS:  cpu time      0.0002: real time      0.0001
    --------------------------------------------
      LOOP:  cpu time      4.3310: real time      4.3537

 eigenvalue-minimisations  :   384
 total energy-change (2. order) :-0.4160942E+03  (-0.4141908E+03)
 number of electron     240.0000000 magnetization 
 augmentation part      240.0000000 magnetization 

 Free energy of the ion-electron system (eV)
  ---------------------------------------------------
  alpha Z        PSCENC =       107.77265948
  Ewald energy   TEWEN  =     24585.34044588
  -Hartree energ DENC   =    -31075.24411798
  -exchange      EXHF   =         0.00000000
  -V(xc)+E(xc)   XCENC  =       788.64363849
  PAW double counting   =      6511.32278280    -6545.48713133
  entropy T*S    EENTRO =        -0.00000000
  eigenvalues    EBANDS =     -3755.18470273
  atomic energy  EATOM  =      8828.93359873
  Solvation  Ediel_sol  =         0.00000000
  ---------------------------------------------------
  free energy    TOTEN  =      -553.90282666 eV

  energy without entropy =     -553.90282666  energy(sigma->0) =     -553.90282666


--------------------------------------------------------------------------------------------------------




--------------------------------------- Iteration      1(   4)  ---------------------------------------


     EDDAV:  cpu time      4.6156: real time      4.6379
       DOS:  cpu time      0.0001: real time      0.0001
    --------------------------------------------
      LOOP:  cpu time      4.6157: real time      4.6380

 eigenvalue-minimisations  :   416
 total energy-change (2. order) :-0.1461511E+02  (-0.1452327E+02)
 number of electron     240.0000000 magnetization 
 augmentation part      240.0000000 magnetization 

 Free energy of the ion-electron system (eV)
  ---------------------------------------------------
  alpha Z        PSCENC =       107.77265948
  Ewald energy   TEWEN  =     24585.34044588
  -Hartree energ DENC   =    -31075.24411798
  -exchange      EXHF   =         0.00000000
  -V(xc)+E(xc)   XCENC  =       788.64363849
  PAW double counting   =      6511.32278280    -6545.48713133
  entropy T*S    EENTRO =        -0.00000000
  eigenvalues    EBANDS =     -3769.79981501
  atomic energy  EATOM  =      8828.93359873
  Solvation  Ediel_sol  =         0.00000000
  ---------------------------------------------------
  free energy    TOTEN  =      -568.51793893 eV

  energy without entropy =     -568.51793893  energy(sigma->0) =     -568.51793893


--------------------------------------------------------------------------------------------------------




--------------------------------------- Iteration      1(   5)  ---------------------------------------


     EDDAV:  cpu time      5.5084: real time      5.5254
       DOS:  cpu time      0.0003: real time      0.0003
    CHARGE:  cpu time      0.2441: real time      0.2457
    MIXING:  cpu time      0.0131: real time      0.0132
    --------------------------------------------
      LOOP:  cpu time      5.7659: real time      5.7845

 eigenvalue-minimisations  :   512
 total energy-change (2. order) :-0.4299339E+00  (-0.4292970E+00)
 number of electron     240.0000000 magnetization 
 augmentation part        6.2731871 magnetization 

 Broyden mixing:
  rms(total) = 0.33925E+01    rms(broyden)= 0.33921E+01
  rms(prec ) = 0.39059E+01
  weight for this iteration     100.00

 Free energy of the ion-electron system (eV)
  ---------------------------------------------------
  alpha Z        PSCENC =       107.77265948
  Ewald energy   TEWEN  =     24585.34044588
  -Hartree energ DENC   =    -31075.24411798
  -exchange      EXHF   =         0.00000000
  -V(xc)+E(xc)   XCENC  =       788.64363849
  PAW double counting   =      6511.32278280    -6545.48713133
  entropy T*S    EENTRO =        -0.00000000
  eigenvalues    EBANDS =     -3770.22974894
  atomic energy  EATOM  =      8828.93359873
  Solvation  Ediel_sol  =         0.00000000
  ---------------------------------------------------
  free energy    TOTEN  =      -568.94787286 eV

  energy without entropy =     -568.94787286  energy(sigma->0) =     -568.94787286


--------------------------------------------------------------------------------------------------------




--------------------------------------- Iteration      1(   6)  ---------------------------------------


    POTLOK:  cpu time      0.1542: real time      0.1619
    SETDIJ:  cpu time      0.1846: real time      0.1850
     EDDAV:  cpu time      3.7495: real time      3.7583
       DOS:  cpu time      0.0002: real time      0.0001
    CHARGE:  cpu time      0.2515: real time      0.2520
    MIXING:  cpu time      0.0058: real time      0.0078
    --------------------------------------------
      LOOP:  cpu time      4.3456: real time      4.3652

 eigenvalue-minimisations  :   320
 total energy-change (2. order) : 0.2811620E+02  (-0.2741477E+01)
 number of electron     240.0000000 magnetization 
 augmentation part        5.9826378 magnetization 

 Broyden mixing:
  rms(total) = 0.19496E+01    rms(broyden)= 0.19496E+01
  rms(prec ) = 0.21966E+01
  weight for this iteration     100.00

 eigenvalues of (default mixing * dielectric matrix)
  average eigenvalue GAMMA=   2.1632
  2.1632

 Free energy of the ion-electron system (eV)
  ---------------------------------------------------
  alpha Z        PSCENC =       107.77265948
  Ewald energy   TEWEN  =     24585.34044588
  -Hartree energ DENC   =    -31430.29158044
  -exchange      EXHF   =         0.00000000
  -V(xc)+E(xc)   XCENC  =       802.26322859
  PAW double counting   =     11758.64007830   -11797.21378250
  entropy T*S    EENTRO =        -0.00000000
  eigenvalues    EBANDS =     -3396.27632170
  atomic energy  EATOM  =      8828.93359873
  Solvation  Ediel_sol  =         0.00000000
  ---------------------------------------------------
  free energy    TOTEN  =      -540.83167367 eV

  energy without entropy =     -540.83167367  energy(sigma->0) =     -540.83167367


--------------------------------------------------------------------------------------------------------




--------------------------------------- Iteration      1(   7)  ---------------------------------------


    POTLOK:  cpu time      0.1588: real time      0.1599
    SETDIJ:  cpu time      0.1831: real time      0.1833
     EDDAV:  cpu time      4.6217: real time      4.6337
       DOS:  cpu time      0.0001: real time      0.0001
    CHARGE:  cpu time      0.2452: real time      0.2456
    MIXING:  cpu time      0.0081: real time      0.0081
    --------------------------------------------
      LOOP:  cpu time      5.2170: real time      5.2308

 eigenvalue-minimisations  :   416
 total energy-change (2. order) : 0.9571357E+01  (-0.3570707E+01)
 number of electron     240.0000000 magnetization 
 augmentation part        5.6410620 magnetization 

 Broyden mixing:
  rms(total) = 0.55850E+00    rms(broyden)= 0.55840E+00
  rms(prec ) = 0.59915E+00
  weight for this iteration     100.00

 eigenvalues of (default mixing * dielectric matrix)
  average eigenvalue GAMMA=   2.3578
  2.3578  2.3578

 Free energy of the ion-electron system (eV)
  ---------------------------------------------------
  alpha Z        PSCENC =       107.77265948
  Ewald energy   TEWEN  =     24585.34044588
  -Hartree energ DENC   =    -31861.83949617
  -exchange      EXHF   =         0.00000000
  -V(xc)+E(xc)   XCENC  =       820.01080926
  PAW double counting   =     21280.09173614   -21322.50589864
  entropy T*S    EENTRO =        -0.00000000
  eigenvalues    EBANDS =     -2969.06417135
  atomic energy  EATOM  =      8828.93359873
  Solvation  Ediel_sol  =         0.00000000
  ---------------------------------------------------
  free energy    TOTEN  =      -531.26031668 eV

  energy without entropy =     -531.26031668  energy(sigma->0) =     -531.26031668


--------------------------------------------------------------------------------------------------------




--------------------------------------- Iteration      1(   8)  ---------------------------------------


    POTLOK:  cpu time      0.1525: real time      0.1602
    SETDIJ:  cpu time      0.1835: real time      0.1838
     EDDAV:  cpu time      4.9181: real time      4.9294
       DOS:  cpu time      0.0002: real time      0.0002
    CHARGE:  cpu time      0.2462: real time      0.2468
    MIXING:  cpu time      0.0106: real time      0.0116
    --------------------------------------------
      LOOP:  cpu time      5.5112: real time      5.5320

 eigenvalue-minimisations  :   448
 total energy-change (2. order) : 0.8005904E-01  (-0.2629445E+00)
 number of electron     240.0000000 magnetization 
 augmentation part        5.6446433 magnetization 

 Broyden mixing:
  rms(total) = 0.10394E+00    rms(broyden)= 0.10393E+00
  rms(prec ) = 0.18005E+00
  weight for this iteration     100.00

 eigenvalues of (default mixing * dielectric matrix)
  average eigenvalue GAMMA=   1.8271
  2.4089  1.5362  1.5362

 Free energy of the ion-electron system (eV)
  ---------------------------------------------------
  alpha Z        PSCENC =       107.77265948
  Ewald energy   TEWEN  =     24585.34044588
  -Hartree energ DENC   =    -31883.81396701
  -exchange      EXHF   =         0.00000000
  -V(xc)+E(xc)   XCENC  =       820.22853400
  PAW double counting   =     24138.08239199   -24178.75984200
  entropy T*S    EENTRO =        -0.00000000
  eigenvalues    EBANDS =     -2948.96407870
  atomic energy  EATOM  =      8828.93359873
  Solvation  Ediel_sol  =         0.00000000
  ---------------------------------------------------
  free energy    TOTEN  =      -531.18025764 eV

  energy without entropy =     -531.18025764  energy(sigma->0) =     -531.18025764


--------------------------------------------------------------------------------------------------------




--------------------------------------- Iteration      1(   9)  ---------------------------------------


    POTLOK:  cpu time      0.1546: real time      0.1609
    SETDIJ:  cpu time      0.1844: real time      0.1847
     EDDAV:  cpu time      3.7586: real time      3.7681
       DOS:  cpu time      0.0002: real time      0.0001
    CHARGE:  cpu time      0.2491: real time      0.2497
    MIXING:  cpu time      0.0070: real time      0.0070
    --------------------------------------------
      LOOP:  cpu time      4.3539: real time      4.3705

 eigenvalue-minimisations  :   320
 total energy-change (2. order) : 0.8877014E-01  (-0.3238113E-01)
 number of electron     240.0000000 magnetization 
 augmentation part        5.6201507 magnetization 

 Broyden mixing:
  rms(total) = 0.48268E-01    rms(broyden)= 0.48263E-01
  rms(prec ) = 0.97919E-01
  weight for this iteration     100.00

 eigenvalues of (default mixing * dielectric matrix)
  average eigenvalue GAMMA=   1.8138
  2.3391  2.3391  1.2885  1.2885

 Free energy of the ion-electron system (eV)
  ---------------------------------------------------
  alpha Z        PSCENC =       107.77265948
  Ewald energy   TEWEN  =     24585.34044588
  -Hartree energ DENC   =    -31922.82042092
  -exchange      EXHF   =         0.00000000
  -V(xc)+E(xc)   XCENC  =       821.18720907
  PAW double counting   =     24171.82108311   -24212.84843454
  entropy T*S    EENTRO =        -0.00000000
  eigenvalues    EBANDS =     -2910.47762831
  atomic energy  EATOM  =      8828.93359873
  Solvation  Ediel_sol  =         0.00000000
  ---------------------------------------------------
  free energy    TOTEN  =      -531.09148750 eV

  energy without entropy =     -531.09148750  energy(sigma->0) =     -531.09148750


--------------------------------------------------------------------------------------------------------




--------------------------------------- Iteration      1(  10)  ---------------------------------------


    POTLOK:  cpu time      0.1526: real time      0.1598
    SETDIJ:  cpu time      0.1832: real time      0.1839
     EDDAV:  cpu time      5.2968: real time      5.3512
       DOS:  cpu time      0.0002: real time      0.0002
    CHARGE:  cpu time      0.2492: real time      0.2502
    MIXING:  cpu time      0.0058: real time      0.0058
    --------------------------------------------
      LOOP:  cpu time      5.8877: real time      5.9510

 eigenvalue-minimisations  :   480
 total energy-change (2. order) : 0.1116195E-01  (-0.4721133E-02)
 number of electron     240.0000000 magnetization 
 augmentation part        5.6169172 magnetization 

 Broyden mixing:
  rms(total) = 0.27652E-01    rms(broyden)= 0.27651E-01
  rms(prec ) = 0.58927E-01
  weight for this iteration     100.00

 eigenvalues of (default mixing * dielectric matrix)
  average eigenvalue GAMMA=   1.8304
  2.6471  2.6471  1.4628  1.4628  0.9323

 Free energy of the ion-electron system (eV)
  ---------------------------------------------------
  alpha Z        PSCENC =       107.77265948
  Ewald energy   TEWEN  =     24585.34044588
  -Hartree energ DENC   =    -31953.33652881
  -exchange      EXHF   =         0.00000000
  -V(xc)+E(xc)   XCENC  =       821.31916253
  PAW double counting   =     24107.42429551   -24148.16152302
  entropy T*S    EENTRO =        -0.00000000
  eigenvalues    EBANDS =     -2880.37243584
  atomic energy  EATOM  =      8828.93359873
  Solvation  Ediel_sol  =         0.00000000
  ---------------------------------------------------
  free energy    TOTEN  =      -531.08032555 eV

  energy without entropy =     -531.08032555  energy(sigma->0) =     -531.08032555


--------------------------------------------------------------------------------------------------------




--------------------------------------- Iteration      1(  11)  ---------------------------------------


    POTLOK:  cpu time      0.1531: real time      0.1609
    SETDIJ:  cpu time      0.1876: real time      0.1884
     EDDAV:  cpu time      4.6264: real time      4.6370
       DOS:  cpu time      0.0001: real time      0.0001
    CHARGE:  cpu time      0.2410: real time      0.2413
    MIXING:  cpu time      0.0163: real time      0.0163
    --------------------------------------------
      LOOP:  cpu time      5.2246: real time      5.2440

 eigenvalue-minimisations  :   416
 total energy-change (2. order) :-0.2946098E-02  (-0.2577120E-02)
 number of electron     240.0000000 magnetization 
 augmentation part        5.6112543 magnetization 

 Broyden mixing:
  rms(total) = 0.18126E-01    rms(broyden)= 0.18125E-01
  rms(prec ) = 0.30979E-01
  weight for this iteration     100.00

 eigenvalues of (default mixing * dielectric matrix)
  average eigenvalue GAMMA=   1.9624
  3.4552  2.2819  2.2819  1.6067  1.1569  0.9919

 Free energy of the ion-electron system (eV)
  ---------------------------------------------------
  alpha Z        PSCENC =       107.77265948
  Ewald energy   TEWEN  =     24585.34044588
  -Hartree energ DENC   =    -31987.26965584
  -exchange      EXHF   =         0.00000000
  -V(xc)+E(xc)   XCENC  =       821.79356633
  PAW double counting   =     24075.09411195   -24115.82166116
  entropy T*S    EENTRO =        -0.00000000
  eigenvalues    EBANDS =     -2846.92633701
  atomic energy  EATOM  =      8828.93359873
  Solvation  Ediel_sol  =         0.00000000
  ---------------------------------------------------
  free energy    TOTEN  =      -531.08327164 eV

  energy without entropy =     -531.08327164  energy(sigma->0) =     -531.08327164


--------------------------------------------------------------------------------------------------------




--------------------------------------- Iteration      1(  12)  ---------------------------------------


    POTLOK:  cpu time      0.1513: real time      0.1601
    SETDIJ:  cpu time      0.1873: real time      0.1875
     EDDAV:  cpu time      4.3370: real time      4.3473
       DOS:  cpu time      0.0002: real time      0.0002
    CHARGE:  cpu time      0.2529: real time      0.2536
    MIXING:  cpu time      0.0073: real time      0.0073
    --------------------------------------------
      LOOP:  cpu time      4.9361: real time      4.9561

 eigenvalue-minimisations  :   384
 total energy-change (2. order) :-0.9148214E-02  (-0.1018568E-02)
 number of electron     240.0000000 magnetization 
 augmentation part        5.6066195 magnetization 

 Broyden mixing:
  rms(total) = 0.86461E-02    rms(broyden)= 0.86444E-02
  rms(prec ) = 0.15705E-01
  weight for this iteration     100.00

 eigenvalues of (default mixing * dielectric matrix)
  average eigenvalue GAMMA=   2.2279
  5.3028  2.6321  2.3100  1.6667  1.6667  1.0085  1.0085

 Free energy of the ion-electron system (eV)
  ---------------------------------------------------
  alpha Z        PSCENC =       107.77265948
  Ewald energy   TEWEN  =     24585.34044588
  -Hartree energ DENC   =    -32005.84505678
  -exchange      EXHF   =         0.00000000
  -V(xc)+E(xc)   XCENC  =       822.04553506
  PAW double counting   =     24047.18544227   -24087.98543345
  entropy T*S    EENTRO =        -0.00000000
  eigenvalues    EBANDS =     -2828.53961104
  atomic energy  EATOM  =      8828.93359873
  Solvation  Ediel_sol  =         0.00000000
  ---------------------------------------------------
  free energy    TOTEN  =      -531.09241986 eV

  energy without entropy =     -531.09241986  energy(sigma->0) =     -531.09241986


--------------------------------------------------------------------------------------------------------




--------------------------------------- Iteration      1(  13)  ---------------------------------------


    POTLOK:  cpu time      0.1516: real time      0.1594
    SETDIJ:  cpu time      0.1875: real time      0.1877
     EDDAV:  cpu time      4.3390: real time      4.3470
       DOS:  cpu time      0.0002: real time      0.0001
    CHARGE:  cpu time      0.2444: real time      0.2447
    MIXING:  cpu time      0.0115: real time      0.0116
    --------------------------------------------
      LOOP:  cpu time      4.9342: real time      4.9505

 eigenvalue-minimisations  :   384
 total energy-change (2. order) :-0.7595701E-02  (-0.1942581E-03)
 number of electron     240.0000000 magnetization 
 augmentation part        5.6068535 magnetization 

 Broyden mixing:
  rms(total) = 0.52809E-02    rms(broyden)= 0.52808E-02
  rms(prec ) = 0.85019E-02
  weight for this iteration     100.00

 eigenvalues of (default mixing * dielectric matrix)
  average eigenvalue GAMMA=   2.3386
  5.9377  3.2543  2.6008  1.9873  1.4510  1.4510  1.0133  1.0133

 Free energy of the ion-electron system (eV)
  ---------------------------------------------------
  alpha Z        PSCENC =       107.77265948
  Ewald energy   TEWEN  =     24585.34044588
  -Hartree energ DENC   =    -32011.18074608
  -exchange      EXHF   =         0.00000000
  -V(xc)+E(xc)   XCENC  =       821.97650927
  PAW double counting   =     24023.71260500   -24064.50969498
  entropy T*S    EENTRO =        -0.00000000
  eigenvalues    EBANDS =     -2823.14539284
  atomic energy  EATOM  =      8828.93359873
  Solvation  Ediel_sol  =         0.00000000
  ---------------------------------------------------
  free energy    TOTEN  =      -531.10001556 eV

  energy without entropy =     -531.10001556  energy(sigma->0) =     -531.10001556


--------------------------------------------------------------------------------------------------------




--------------------------------------- Iteration      1(  14)  ---------------------------------------


    POTLOK:  cpu time      0.1513: real time      0.1594
    SETDIJ:  cpu time      0.1888: real time      0.1891
     EDDAV:  cpu time      4.6262: real time      4.6399
       DOS:  cpu time      0.0001: real time      0.0001
    CHARGE:  cpu time      0.2369: real time      0.2380
    MIXING:  cpu time      0.0191: real time      0.0191
    --------------------------------------------
      LOOP:  cpu time      5.2224: real time      5.2456

 eigenvalue-minimisations  :   416
 total energy-change (2. order) :-0.8405625E-02  (-0.1288533E-03)
 number of electron     240.0000000 magnetization 
 augmentation part        5.6075572 magnetization 

 Broyden mixing:
  rms(total) = 0.46964E-02    rms(broyden)= 0.46964E-02
  rms(prec ) = 0.59554E-02
  weight for this iteration     100.00

 eigenvalues of (default mixing * dielectric matrix)
  average eigenvalue GAMMA=   2.3614
  6.6262  3.5889  2.3379  2.3379  1.6828  1.6828  1.0365  1.0365  0.9230

 Free energy of the ion-electron system (eV)
  ---------------------------------------------------
  alpha Z        PSCENC =       107.77265948
  Ewald energy   TEWEN  =     24585.34044588
  -Hartree energ DENC   =    -32010.75538220
  -exchange      EXHF   =         0.00000000
  -V(xc)+E(xc)   XCENC  =       821.91393376
  PAW double counting   =     24071.97055187   -24112.75390869
  entropy T*S    EENTRO =        -0.00000000
  eigenvalues    EBANDS =     -2823.53032000
  atomic energy  EATOM  =      8828.93359873
  Solvation  Ediel_sol  =         0.00000000
  ---------------------------------------------------
  free energy    TOTEN  =      -531.10842118 eV

  energy without entropy =     -531.10842118  energy(sigma->0) =     -531.10842118


--------------------------------------------------------------------------------------------------------




--------------------------------------- Iteration      1(  15)  ---------------------------------------


    POTLOK:  cpu time      0.1599: real time      0.1605
    SETDIJ:  cpu time      0.1881: real time      0.1884
     EDDAV:  cpu time      4.3327: real time      4.3411
       DOS:  cpu time      0.0002: real time      0.0002
    CHARGE:  cpu time      0.2386: real time      0.2396
    MIXING:  cpu time      0.0189: real time      0.0189
    --------------------------------------------
      LOOP:  cpu time      4.9385: real time      4.9487

 eigenvalue-minimisations  :   384
 total energy-change (2. order) :-0.3132053E-02  (-0.4259492E-04)
 number of electron     240.0000000 magnetization 
 augmentation part        5.6073059 magnetization 

 Broyden mixing:
  rms(total) = 0.97907E-03    rms(broyden)= 0.97903E-03
  rms(prec ) = 0.23113E-02
  weight for this iteration     100.00

 eigenvalues of (default mixing * dielectric matrix)
  average eigenvalue GAMMA=   2.4545
  7.1686  4.2679  2.7302  2.5170  1.8922  1.4874  1.4324  1.0964  0.9762  0.9762

 Free energy of the ion-electron system (eV)
  ---------------------------------------------------
  alpha Z        PSCENC =       107.77265948
  Ewald energy   TEWEN  =     24585.34044588
  -Hartree energ DENC   =    -32011.61634503
  -exchange      EXHF   =         0.00000000
  -V(xc)+E(xc)   XCENC  =       821.91915292
  PAW double counting   =     24045.71456426   -24086.50238093
  entropy T*S    EENTRO =        -0.00000000
  eigenvalues    EBANDS =     -2822.67324854
  atomic energy  EATOM  =      8828.93359873
  Solvation  Ediel_sol  =         0.00000000
  ---------------------------------------------------
  free energy    TOTEN  =      -531.11155324 eV

  energy without entropy =     -531.11155324  energy(sigma->0) =     -531.11155324


--------------------------------------------------------------------------------------------------------




--------------------------------------- Iteration      1(  16)  ---------------------------------------


    POTLOK:  cpu time      0.1533: real time      0.1598
    SETDIJ:  cpu time      0.1863: real time      0.1866
     EDDAV:  cpu time      4.0501: real time      4.0608
       DOS:  cpu time      0.0001: real time      0.0001
    CHARGE:  cpu time      0.2431: real time      0.2436
    MIXING:  cpu time      0.0097: real time      0.0097
    --------------------------------------------
      LOOP:  cpu time      4.6426: real time      4.6605

 eigenvalue-minimisations  :   352
 total energy-change (2. order) :-0.1793630E-02  (-0.2771000E-04)
 number of electron     240.0000000 magnetization 
 augmentation part        5.6070143 magnetization 

 Broyden mixing:
  rms(total) = 0.10914E-02    rms(broyden)= 0.10913E-02
  rms(prec ) = 0.16334E-02
  weight for this iteration     100.00

 eigenvalues of (default mixing * dielectric matrix)
  average eigenvalue GAMMA=   2.4528
  7.2626  4.5828  2.7517  2.7517  2.1224  1.7001  1.7001  0.9709  1.0208  1.0591
  1.0591

 Free energy of the ion-electron system (eV)
  ---------------------------------------------------
  alpha Z        PSCENC =       107.77265948
  Ewald energy   TEWEN  =     24585.34044588
  -Hartree energ DENC   =    -32012.54283237
  -exchange      EXHF   =         0.00000000
  -V(xc)+E(xc)   XCENC  =       821.93443889
  PAW double counting   =     24044.65059454   -24085.43796902
  entropy T*S    EENTRO =        -0.00000000
  eigenvalues    EBANDS =     -2821.76428298
  atomic energy  EATOM  =      8828.93359873
  Solvation  Ediel_sol  =         0.00000000
  ---------------------------------------------------
  free energy    TOTEN  =      -531.11334687 eV

  energy without entropy =     -531.11334687  energy(sigma->0) =     -531.11334687


--------------------------------------------------------------------------------------------------------




--------------------------------------- Iteration      1(  17)  ---------------------------------------


    POTLOK:  cpu time      0.1528: real time      0.1600
    SETDIJ:  cpu time      0.1864: real time      0.1872
     EDDAV:  cpu time      4.6286: real time      4.6396
       DOS:  cpu time      0.0002: real time      0.0002
    CHARGE:  cpu time      0.2426: real time      0.2431
    MIXING:  cpu time      0.0102: real time      0.0102
    --------------------------------------------
      LOOP:  cpu time      5.2208: real time      5.2402

 eigenvalue-minimisations  :   416
 total energy-change (2. order) :-0.3790383E-03  (-0.4419280E-05)
 number of electron     240.0000000 magnetization 
 augmentation part        5.6070147 magnetization 

 Broyden mixing:
  rms(total) = 0.65087E-03    rms(broyden)= 0.65082E-03
  rms(prec ) = 0.87445E-03
  weight for this iteration     100.00

 eigenvalues of (default mixing * dielectric matrix)
  average eigenvalue GAMMA=   2.5486
  7.7265  5.7546  3.4459  2.5438  2.2951  1.7918  1.7053  1.1893  1.1893  0.9259
  1.0078  1.0078

 Free energy of the ion-electron system (eV)
  ---------------------------------------------------
  alpha Z        PSCENC =       107.77265948
  Ewald energy   TEWEN  =     24585.34044588
  -Hartree energ DENC   =    -32012.47640075
  -exchange      EXHF   =         0.00000000
  -V(xc)+E(xc)   XCENC  =       821.93162725
  PAW double counting   =     24044.27876081   -24085.06714704
  entropy T*S    EENTRO =        -0.00000000
  eigenvalues    EBANDS =     -2821.82727026
  atomic energy  EATOM  =      8828.93359873
  Solvation  Ediel_sol  =         0.00000000
  ---------------------------------------------------
  free energy    TOTEN  =      -531.11372591 eV

  energy without entropy =     -531.11372591  energy(sigma->0) =     -531.11372591


--------------------------------------------------------------------------------------------------------




--------------------------------------- Iteration      1(  18)  ---------------------------------------


    POTLOK:  cpu time      0.1536: real time      0.1626
    SETDIJ:  cpu time      0.1864: real time      0.1866
     EDDAV:  cpu time      4.3293: real time      4.3398
       DOS:  cpu time      0.0001: real time      0.0001
    CHARGE:  cpu time      0.2442: real time      0.2445
    MIXING:  cpu time      0.0097: real time      0.0098
    --------------------------------------------
      LOOP:  cpu time      4.9233: real time      4.9434

 eigenvalue-minimisations  :   384
 total energy-change (2. order) :-0.1179685E-03  (-0.7824717E-06)
 number of electron     240.0000000 magnetization 
 augmentation part        5.6070626 magnetization 

 Broyden mixing:
  rms(total) = 0.22046E-03    rms(broyden)= 0.22033E-03
  rms(prec ) = 0.40365E-03
  weight for this iteration     100.00

 eigenvalues of (default mixing * dielectric matrix)
  average eigenvalue GAMMA=   2.5733
  7.7292  6.4461  3.6308  2.7261  2.5248  1.9215  1.5632  1.5632  0.9750  0.9750
  1.0729  1.1626  1.1626

 Free energy of the ion-electron system (eV)
  ---------------------------------------------------
  alpha Z        PSCENC =       107.77265948
  Ewald energy   TEWEN  =     24585.34044588
  -Hartree energ DENC   =    -32012.46303807
  -exchange      EXHF   =         0.00000000
  -V(xc)+E(xc)   XCENC  =       821.92968804
  PAW double counting   =     24046.16089083   -24086.94812977
  entropy T*S    EENTRO =        -0.00000000
  eigenvalues    EBANDS =     -2821.83995898
  atomic energy  EATOM  =      8828.93359873
  Solvation  Ediel_sol  =         0.00000000
  ---------------------------------------------------
  free energy    TOTEN  =      -531.11384387 eV

  energy without entropy =     -531.11384387  energy(sigma->0) =     -531.11384387


--------------------------------------------------------------------------------------------------------




--------------------------------------- Iteration      1(  19)  ---------------------------------------


    POTLOK:  cpu time      0.1531: real time      0.1606
    SETDIJ:  cpu time      0.1857: real time      0.1859
     EDDAV:  cpu time      4.6260: real time      4.6359
       DOS:  cpu time      0.0003: real time      0.0003
    CHARGE:  cpu time      0.2415: real time      0.2464
    MIXING:  cpu time      0.0100: real time      0.0100
    --------------------------------------------
      LOOP:  cpu time      5.2165: real time      5.2391

 eigenvalue-minimisations  :   416
 total energy-change (2. order) :-0.7689328E-04  (-0.2470759E-06)
 number of electron     240.0000000 magnetization 
 augmentation part        5.6071034 magnetization 

 Broyden mixing:
  rms(total) = 0.24788E-03    rms(broyden)= 0.24777E-03
  rms(prec ) = 0.32768E-03
  weight for this iteration     100.00

 eigenvalues of (default mixing * dielectric matrix)
  average eigenvalue GAMMA=   2.5775
  8.2018  6.5699  3.8307  2.9638  2.4654  2.2084  1.8298  1.6395  1.1938  1.1938
  0.9746  0.9746  1.0197  1.0197

 Free energy of the ion-electron system (eV)
  ---------------------------------------------------
  alpha Z        PSCENC =       107.77265948
  Ewald energy   TEWEN  =     24585.34044588
  -Hartree energ DENC   =    -32012.43614163
  -exchange      EXHF   =         0.00000000
  -V(xc)+E(xc)   XCENC  =       821.92725806
  PAW double counting   =     24047.83479858   -24088.62171460
  entropy T*S    EENTRO =        -0.00000000
  eigenvalues    EBANDS =     -2821.86482527
  atomic energy  EATOM  =      8828.93359873
  Solvation  Ediel_sol  =         0.00000000
  ---------------------------------------------------
  free energy    TOTEN  =      -531.11392077 eV

  energy without entropy =     -531.11392077  energy(sigma->0) =     -531.11392077


--------------------------------------------------------------------------------------------------------




--------------------------------------- Iteration      1(  20)  ---------------------------------------


    POTLOK:  cpu time      0.1521: real time      0.1595
    SETDIJ:  cpu time      0.1861: real time      0.1863
     EDDAV:  cpu time      4.6281: real time      4.6406
       DOS:  cpu time      0.0002: real time      0.0001
    CHARGE:  cpu time      0.2442: real time      0.2447
    MIXING:  cpu time      0.0098: real time      0.0099
    --------------------------------------------
      LOOP:  cpu time      5.2204: real time      5.2412

 eigenvalue-minimisations  :   416
 total energy-change (2. order) :-0.4344676E-04  (-0.9979876E-07)
 number of electron     240.0000000 magnetization 
 augmentation part        5.6071010 magnetization 

 Broyden mixing:
  rms(total) = 0.93704E-04    rms(broyden)= 0.93415E-04
  rms(prec ) = 0.14293E-03
  weight for this iteration     100.00

 eigenvalues of (default mixing * dielectric matrix)
  average eigenvalue GAMMA=   2.6023
  8.3317  6.7551  4.2355  3.2975  2.5669  2.3772  1.8577  1.7235  1.4574  1.1779
  1.1779  0.9557  1.0003  1.0003  1.1204

 Free energy of the ion-electron system (eV)
  ---------------------------------------------------
  alpha Z        PSCENC =       107.77265948
  Ewald energy   TEWEN  =     24585.34044588
  -Hartree energ DENC   =    -32012.46085134
  -exchange      EXHF   =         0.00000000
  -V(xc)+E(xc)   XCENC  =       821.92744663
  PAW double counting   =     24047.14134230   -24087.92840703
  entropy T*S    EENTRO =        -0.00000000
  eigenvalues    EBANDS =     -2821.84019886
  atomic energy  EATOM  =      8828.93359873
  Solvation  Ediel_sol  =         0.00000000
  ---------------------------------------------------
  free energy    TOTEN  =      -531.11396421 eV

  energy without entropy =     -531.11396421  energy(sigma->0) =     -531.11396421


--------------------------------------------------------------------------------------------------------




--------------------------------------- Iteration      1(  21)  ---------------------------------------


    POTLOK:  cpu time      0.1518: real time      0.1601
    SETDIJ:  cpu time      0.1838: real time      0.1841
     EDDAV:  cpu time      4.3328: real time      4.3499
       DOS:  cpu time      0.0001: real time      0.0001
    CHARGE:  cpu time      0.2417: real time      0.2422
    MIXING:  cpu time      0.0103: real time      0.0103
    --------------------------------------------
      LOOP:  cpu time      4.9205: real time      4.9467

 eigenvalue-minimisations  :   384
 total energy-change (2. order) :-0.1616467E-04  (-0.8460717E-07)
 number of electron     240.0000000 magnetization 
 augmentation part        5.6070856 magnetization 

 Broyden mixing:
  rms(total) = 0.45736E-04    rms(broyden)= 0.45141E-04
  rms(prec ) = 0.59652E-04
  weight for this iteration     100.00

 eigenvalues of (default mixing * dielectric matrix)
  average eigenvalue GAMMA=   2.6531
  8.9233  6.7978  4.9815  3.3869  2.5629  2.5629  2.1456  1.9514  1.5621  1.2095
  1.2095  0.9690  0.9690  1.0881  1.0651  1.0651

 Free energy of the ion-electron system (eV)
  ---------------------------------------------------
  alpha Z        PSCENC =       107.77265948
  Ewald energy   TEWEN  =     24585.34044588
  -Hartree energ DENC   =    -32012.51365013
  -exchange      EXHF   =         0.00000000
  -V(xc)+E(xc)   XCENC  =       821.92830558
  PAW double counting   =     24047.01628285   -24087.80339177
  entropy T*S    EENTRO =        -0.00000000
  eigenvalues    EBANDS =     -2821.78823098
  atomic energy  EATOM  =      8828.93359873
  Solvation  Ediel_sol  =         0.00000000
  ---------------------------------------------------
  free energy    TOTEN  =      -531.11398038 eV

  energy without entropy =     -531.11398038  energy(sigma->0) =     -531.11398038


--------------------------------------------------------------------------------------------------------




--------------------------------------- Iteration      1(  22)  ---------------------------------------


    POTLOK:  cpu time      0.1526: real time      0.1599
    SETDIJ:  cpu time      0.1835: real time      0.1838
     EDDAV:  cpu time      4.6501: real time      4.7059
       DOS:  cpu time      0.0002: real time      0.0001
    CHARGE:  cpu time      0.2432: real time      0.2438
    MIXING:  cpu time      0.0102: real time      0.0102
    --------------------------------------------
      LOOP:  cpu time      5.2398: real time      5.3037

 eigenvalue-minimisations  :   416
 total energy-change (2. order) :-0.5124759E-05  (-0.2844496E-07)
 number of electron     240.0000000 magnetization 
 augmentation part        5.6070829 magnetization 

 Broyden mixing:
  rms(total) = 0.23458E-04    rms(broyden)= 0.22278E-04
  rms(prec ) = 0.28153E-04
  weight for this iteration     100.00

 eigenvalues of (default mixing * dielectric matrix)
  average eigenvalue GAMMA=   2.6652
  9.0872  7.1009  5.4939  3.6057  2.8223  2.5084  2.2040  1.8481  1.7151  1.3042
  1.3042  1.1793  1.1793  1.0046  1.0046  0.9649  0.9818

 Free energy of the ion-electron system (eV)
  ---------------------------------------------------
  alpha Z        PSCENC =       107.77265948
  Ewald energy   TEWEN  =     24585.34044588
  -Hartree energ DENC   =    -32012.51163820
  -exchange      EXHF   =         0.00000000
  -V(xc)+E(xc)   XCENC  =       821.92839361
  PAW double counting   =     24046.81607824   -24087.60325458
  entropy T*S    EENTRO =        -0.00000000
  eigenvalues    EBANDS =     -2821.79026865
  atomic energy  EATOM  =      8828.93359873
  Solvation  Ediel_sol  =         0.00000000
  ---------------------------------------------------
  free energy    TOTEN  =      -531.11398550 eV

  energy without entropy =     -531.11398550  energy(sigma->0) =     -531.11398550


--------------------------------------------------------------------------------------------------------




--------------------------------------- Iteration      1(  23)  ---------------------------------------


    POTLOK:  cpu time      0.1519: real time      0.1591
    SETDIJ:  cpu time      0.1848: real time      0.1851
     EDDAV:  cpu time      4.3387: real time      4.3498
       DOS:  cpu time      0.0001: real time      0.0001
    CHARGE:  cpu time      0.2427: real time      0.2432
    MIXING:  cpu time      0.0110: real time      0.0110
    --------------------------------------------
      LOOP:  cpu time      4.9293: real time      4.9483

 eigenvalue-minimisations  :   384
 total energy-change (2. order) :-0.6953815E-06  (-0.2446688E-08)
 number of electron     240.0000000 magnetization 
 augmentation part        5.6070824 magnetization 

 Broyden mixing:
  rms(total) = 0.15453E-04    rms(broyden)= 0.13596E-04
  rms(prec ) = 0.17223E-04
  weight for this iteration     100.00
  WARNING: grid for Broyden might be to small

 eigenvalues of (default mixing * dielectric matrix)
  average eigenvalue GAMMA=   2.6460
  9.3306  7.2100  5.7421  3.6420  2.9210  2.4804  2.4804  1.8539  1.6902  1.4572
  1.4572  1.1564  1.1564  0.9503  0.9837  0.9837  1.0666  1.0666

 Free energy of the ion-electron system (eV)
  ---------------------------------------------------
  alpha Z        PSCENC =       107.77265948
  Ewald energy   TEWEN  =     24585.34044588
  -Hartree energ DENC   =    -32012.51608556
  -exchange      EXHF   =         0.00000000
  -V(xc)+E(xc)   XCENC  =       821.92843896
  PAW double counting   =     24046.82964252   -24087.61679416
  entropy T*S    EENTRO =        -0.00000000
  eigenvalues    EBANDS =     -2821.78589204
  atomic energy  EATOM  =      8828.93359873
  Solvation  Ediel_sol  =         0.00000000
  ---------------------------------------------------
  free energy    TOTEN  =      -531.11398620 eV

  energy without entropy =     -531.11398620  energy(sigma->0) =     -531.11398620


--------------------------------------------------------------------------------------------------------




--------------------------------------- Iteration      1(  24)  ---------------------------------------


    POTLOK:  cpu time      0.1558: real time      0.1593
    SETDIJ:  cpu time      0.1829: real time      0.1831
     EDDAV:  cpu time      3.7652: real time      3.7737
       DOS:  cpu time      0.0001: real time      0.0002
    CHARGE:  cpu time      0.2433: real time      0.2440
    MIXING:  cpu time      0.0103: real time      0.0103
    --------------------------------------------
      LOOP:  cpu time      4.3577: real time      4.3706

 eigenvalue-minimisations  :   320
 total energy-change (2. order) :-0.4355315E-06  (-0.3185150E-09)
 number of electron     240.0000000 magnetization 
 augmentation part        5.6070834 magnetization 

 Broyden mixing:
  rms(total) = 0.84415E-05    rms(broyden)= 0.41618E-05
  rms(prec ) = 0.63024E-05
  weight for this iteration     100.00
  WARNING: grid for Broyden might be to small

 eigenvalues of (default mixing * dielectric matrix)
  average eigenvalue GAMMA=   2.6307
  9.3534  7.3643  5.7701  3.8335  2.9912  2.5787  2.4779  2.0548  1.9783  1.5662
  1.3287  1.3287  1.1598  1.1598  0.9603  0.9720  1.0622  1.0220  1.0220

 Free energy of the ion-electron system (eV)
  ---------------------------------------------------
  alpha Z        PSCENC =       107.77265948
  Ewald energy   TEWEN  =     24585.34044588
  -Hartree energ DENC   =    -32012.51383999
  -exchange      EXHF   =         0.00000000
  -V(xc)+E(xc)   XCENC  =       821.92837864
  PAW double counting   =     24046.86298783   -24087.65013178
  entropy T*S    EENTRO =        -0.00000000
  eigenvalues    EBANDS =     -2821.78808542
  atomic energy  EATOM  =      8828.93359873
  Solvation  Ediel_sol  =         0.00000000
  ---------------------------------------------------
  free energy    TOTEN  =      -531.11398663 eV

  energy without entropy =     -531.11398663  energy(sigma->0) =     -531.11398663


--------------------------------------------------------------------------------------------------------




--------------------------------------- Iteration      1(  25)  ---------------------------------------


    POTLOK:  cpu time      0.1520: real time      0.1597
    SETDIJ:  cpu time      0.1863: real time      0.1865
     EDDAV:  cpu time      3.7627: real time      3.7769
       DOS:  cpu time      0.0002: real time      0.0001
    CHARGE:  cpu time      0.2420: real time      0.2424
    MIXING:  cpu time      0.0104: real time      0.0104
    --------------------------------------------
      LOOP:  cpu time      4.3536: real time      4.3762

 eigenvalue-minimisations  :   320
 total energy-change (2. order) :-0.2180532E-06  ( 0.6022205E-10)
 number of electron     240.0000000 magnetization 
 augmentation part        5.6070839 magnetization 

 Broyden mixing:
  rms(total) = 0.76599E-05    rms(broyden)= 0.21765E-05
  rms(prec ) = 0.30989E-05
  weight for this iteration     100.00
  WARNING: grid for Broyden might be to small

 eigenvalues of (default mixing * dielectric matrix)
  average eigenvalue GAMMA=   2.6280
  9.4124  7.3630  5.8629  3.9879  3.3428  2.7994  2.4598  2.3196  1.9012  1.6480
  1.4621  1.4621  1.1613  1.1613  1.1344  1.1344  0.9583  0.9791  1.0045  1.0045

 Free energy of the ion-electron system (eV)
[...]
 ion   44
    1    -0.06928    -0.14601     0.01147
    2    -0.15777    -0.00798     0.00791
    3     0.02685     0.02452     0.05924
 ion   45
    1     0.07638    -0.03103    -0.06833
    2    -0.05164    -0.03689    -0.12635
    3    -0.05887    -0.10199    -0.06438
 ion   46
    1     0.07384     0.04104    -0.07110
    2     0.06631    -0.05598     0.11717
    3    -0.07092     0.10020    -0.02425
 ion   47
    1    -0.01059    -0.10587     0.06498
    2    -0.10570    -0.01717     0.12133
    3     0.06462     0.10003     0.00766
 ion   48
    1    -0.04729     0.01876    -0.11892
    2     0.05242     0.11147     0.04370
    3    -0.12965     0.05312    -0.02063
 ion   49
    1     0.08019     0.00111    -0.01319
    2    -0.03071    -0.16374     0.08702
    3    -0.02090     0.08232     0.06436
 ion   50
    1    -0.10945    -0.04940    -0.10744
    2    -0.04088     0.06347    -0.02351
    3    -0.09914    -0.00644     0.04887
 ion   51
    1     0.08006     0.03792    -0.01546
    2     0.00239     0.10820     0.07896
    3    -0.03310     0.05755    -0.18261
 ion   52
    1     0.01136    -0.08846    -0.04426
    2    -0.08581    -0.06296    -0.11411
    3    -0.06824    -0.11289     0.05419
 ion   53
    1    -0.02068    -0.10824     0.04536
    2    -0.03361    -0.06917     0.00786
    3     0.05934     0.07785     0.09036
 ion   54
    1     0.07004     0.02758     0.01999
    2     0.03055    -0.07921     0.13374
    3     0.02018     0.12009     0.01406
 ion   55
    1    -0.04712    -0.01326    -0.12150
    2    -0.05072     0.10991    -0.04037
    3    -0.12673    -0.04575    -0.02915
 ion   56
    1    -0.08167     0.14275     0.02552
    2     0.15403     0.00007    -0.01153
    3     0.04226    -0.02809     0.05701
 ion   57
    1    -0.13846     0.06493     0.05768
    2     0.07303     0.04753    -0.03274
    3     0.08027    -0.04636     0.09252
 ion   58
    1    -0.03060     0.10340     0.05649
    2     0.02461    -0.04079    -0.02238
    3     0.07527    -0.08794     0.07538
 ion   59
    1    -0.05603     0.05820     0.11574
    2     0.06645     0.04963    -0.03928
    3     0.11817    -0.01536    -0.01667
 ion   60
    1    -0.01805     0.09854     0.07955
    2     0.10460     0.00664    -0.10894
    3     0.07675    -0.09703    -0.01075
 
    CHARGE:  cpu time      0.2353: real time      0.2359
    FORLOC:  cpu time      0.0535: real time      0.0536
    FORNL :  cpu time      1.5895: real time      1.5981
    STRESS:  cpu time      7.1794: real time      7.2337
    FORCOR:  cpu time      0.1721: real time      0.1723
    FORHAR:  cpu time      0.0716: real time      0.0716
    MIXING:  cpu time      0.0076: real time      0.0077
    OFIELD:  cpu time      0.0000: real time      0.0000

  FORCE on cell =-STRESS in cart. coord.  units (eV):
  Direction    XX          YY          ZZ          XY          YZ          ZX
  --------------------------------------------------------------------------------------
  Alpha Z   107.77266   107.77266   107.77266
  Ewald    8192.34445  8198.24725  8194.71302    -2.83888    -1.16098     5.85868
  Hartree 10668.50096 10673.28531 10670.72648    -1.95279    -0.74097     5.01792
  E(xc)    -897.87754  -897.87379  -897.87864    -0.00419    -0.00167     0.00254
  Local  -21609.32486-21619.94225-21613.88994     4.73133     1.85543   -10.85673
  n-local  -198.63150  -198.62351  -198.63569    -0.00950    -0.00255     0.00344
  augment   -21.90602   -21.90640   -21.90630     0.00031     0.00031    -0.00003
  Kinetic  3758.69116  3758.56845  3758.72761     0.15696     0.04814    -0.08019
  Fock        0.00000     0.00000     0.00000     0.00000     0.00000     0.00000
  -------------------------------------------------------------------------------------
  Total      -0.43069    -0.47228    -0.37080     0.08325    -0.00229    -0.05437
  in kB      -0.25147    -0.27575    -0.21650     0.04861    -0.00134    -0.03175
  external pressure =       -0.25 kB  Pullay stress =        0.00 kB


 VOLUME and BASIS-vectors are now :
 -----------------------------------------------------------------------------
  energy-cutoff  :      520.00
  volume of cell :     2744.00
      direct lattice vectors                 reciprocal lattice vectors
     9.899494937  0.000000000  9.899494937     0.050507627  0.000000000  0.050507627
     0.000000000 14.000000000  0.000000000     0.000000000  0.071428571  0.000000000
    -9.899494937  0.000000000  9.899494937    -0.050507627  0.000000000  0.050507627

  length of vectors
    14.000000000 14.000000000 14.000000000     0.071428571  0.071428571  0.071428571


 FORCES acting on ions
    electron-ion (+dipol)            ewald-force                    non-local-force                 convergence-correction
 -----------------------------------------------------------------------------------------------
   -.372E+03 0.153E+03 0.271E+02   0.373E+03 -.153E+03 -.270E+02   -.766E+00 0.243E+00 -.482E-01   0.000E+00 0.000E+00 0.000E+00
   -.278E+03 0.289E+03 0.460E+02   0.278E+03 -.290E+03 -.460E+02   -.498E+00 0.640E+00 -.221E-02   0.000E+00 0.000E+00 0.000E+00
   -.351E+03 0.582E+02 0.162E+03   0.351E+03 -.582E+02 -.162E+03   -.727E+00 -.681E-02 0.357E+00   0.000E+00 0.000E+00 0.000E+00
   -.198E+03 0.284E+03 0.202E+03   0.198E+03 -.285E+03 -.202E+03   -.287E+00 0.623E+00 0.428E+00   0.000E+00 0.000E+00 0.000E+00
   -.240E+03 0.144E+03 0.272E+03   0.240E+03 -.144E+03 -.273E+03   -.431E+00 0.225E+00 0.649E+00   0.000E+00 0.000E+00 0.000E+00
   -.378E+03 0.865E+02 -.881E+02   0.379E+03 -.867E+02 0.882E+02   -.784E+00 0.229E+00 -.881E-01   0.000E+00 0.000E+00 0.000E+00
   -.206E+03 0.333E+03 -.656E+02   0.207E+03 -.334E+03 0.656E+02   -.473E+00 0.643E+00 -.349E-01   0.000E+00 0.000E+00 0.000E+00
   -.349E+03 -.899E+02 0.156E+03   0.349E+03 0.900E+02 -.156E+03   -.726E+00 -.506E-01 0.349E+00   0.000E+00 0.000E+00 0.000E+00
   -.645E+02 0.324E+03 0.224E+03   0.648E+02 -.325E+03 -.225E+03   -.249E+00 0.643E+00 0.437E+00   0.000E+00 0.000E+00 0.000E+00
   -.147E+03 0.683E+02 0.357E+03   0.148E+03 -.685E+02 -.358E+03   -.404E+00 0.198E+00 0.669E+00   0.000E+00 0.000E+00 0.000E+00
   -.285E+03 0.150E+03 -.222E+03   0.285E+03 -.150E+03 0.222E+03   -.528E+00 0.397E+00 -.452E+00   0.000E+00 0.000E+00 0.000E+00
   -.211E+03 0.263E+03 -.217E+03   0.211E+03 -.263E+03 0.217E+03   -.509E+00 0.438E+00 -.466E+00   0.000E+00 0.000E+00 0.000E+00
   -.374E+03 -.921E+02 -.960E+02   0.375E+03 0.924E+02 0.962E+02   -.766E+00 -.249E+00 -.119E+00   0.000E+00 0.000E+00 0.000E+00
   -.367E+03 -.170E+03 0.131E+02   0.367E+03 0.170E+03 -.130E+02   -.750E+00 -.263E+00 -.808E-01   0.000E+00 0.000E+00 0.000E+00
   -.406E+02 0.379E+03 -.473E+02   0.406E+02 -.380E+03 0.472E+02   -.258E-01 0.805E+00 0.207E-01   0.000E+00 0.000E+00 0.000E+00
   0.240E+02 0.375E+03 0.868E+02   -.240E+02 -.376E+03 -.868E+02   -.640E-02 0.814E+00 0.612E-01   0.000E+00 0.000E+00 0.000E+00
   -.236E+03 -.180E+03 0.259E+03   0.236E+03 0.180E+03 -.260E+03   -.422E+00 -.301E+00 0.621E+00   0.000E+00 0.000E+00 0.000E+00
   -.145E+03 -.110E+03 0.350E+03   0.145E+03 0.111E+03 -.351E+03   -.396E+00 -.277E+00 0.652E+00   0.000E+00 0.000E+00 0.000E+00
   0.444E+02 0.243E+03 0.321E+03   -.445E+02 -.243E+03 -.322E+03   0.522E-01 0.384E+00 0.705E+00   0.000E+00 0.000E+00 0.000E+00
   0.354E+01 0.125E+03 0.383E+03   -.359E+01 -.126E+03 -.383E+03   0.455E-01 0.347E+00 0.724E+00   0.000E+00 0.000E+00 0.000E+00
   -.221E+03 0.114E+02 -.313E+03   0.221E+03 -.115E+02 0.314E+03   -.376E+00 0.272E-01 -.720E+00   0.000E+00 0.000E+00 0.000E+00
   -.278E+03 -.138E+03 -.235E+03   0.279E+03 0.139E+03 0.235E+03   -.509E+00 -.378E+00 -.501E+00   0.000E+00 0.000E+00 0.000E+00
   -.550E+02 0.268E+03 -.297E+03   0.551E+02 -.269E+03 0.298E+03   -.746E-01 0.457E+00 -.664E+00   0.000E+00 0.000E+00 0.000E+00
   0.513E+02 0.342E+03 -.192E+03   -.516E+02 -.343E+03 0.192E+03   0.225E+00 0.687E+00 -.368E+00   0.000E+00 0.000E+00 0.000E+00
   -.267E+03 -.301E+03 0.180E+02   0.267E+03 0.302E+03 -.180E+02   -.470E+00 -.655E+00 -.652E-01   0.000E+00 0.000E+00 0.000E+00
   -.188E+03 -.307E+03 0.175E+03   0.188E+03 0.308E+03 -.175E+03   -.266E+00 -.670E+00 0.366E+00   0.000E+00 0.000E+00 0.000E+00
   0.192E+03 0.333E+03 0.991E+02   -.192E+03 -.334E+03 -.992E+02   0.449E+00 0.666E+00 0.935E-01   0.000E+00 0.000E+00 0.000E+00
   0.199E+03 0.250E+03 0.241E+03   -.199E+03 -.250E+03 -.242E+03   0.486E+00 0.413E+00 0.497E+00   0.000E+00 0.000E+00 0.000E+00
   0.870E+01 -.162E+03 0.370E+03   -.876E+01 0.162E+03 -.371E+03   0.597E-01 -.421E+00 0.691E+00   0.000E+00 0.000E+00 0.000E+00
   0.987E+02 -.171E+02 0.383E+03   -.991E+02 0.172E+02 -.384E+03   0.337E+00 -.296E-01 0.733E+00   0.000E+00 0.000E+00 0.000E+00
   -.987E+02 0.171E+02 -.383E+03   0.991E+02 -.171E+02 0.384E+03   -.336E+00 0.287E-01 -.737E+00   0.000E+00 0.000E+00 0.000E+00
   -.871E+01 0.162E+03 -.370E+03   0.877E+01 -.162E+03 0.371E+03   -.627E-01 0.422E+00 -.687E+00   0.000E+00 0.000E+00 0.000E+00
   -.199E+03 -.250E+03 -.241E+03   0.199E+03 0.250E+03 0.242E+03   -.485E+00 -.408E+00 -.499E+00   0.000E+00 0.000E+00 0.000E+00
   -.192E+03 -.333E+03 -.991E+02   0.192E+03 0.334E+03 0.992E+02   -.447E+00 -.665E+00 -.988E-01   0.000E+00 0.000E+00 0.000E+00
   0.188E+03 0.307E+03 -.175E+03   -.188E+03 -.308E+03 0.175E+03   0.267E+00 0.673E+00 -.370E+00   0.000E+00 0.000E+00 0.000E+00
   0.267E+03 0.301E+03 -.181E+02   -.267E+03 -.302E+03 0.180E+02   0.467E+00 0.651E+00 0.628E-01   0.000E+00 0.000E+00 0.000E+00
   -.514E+02 -.342E+03 0.192E+03   0.516E+02 0.343E+03 -.192E+03   -.225E+00 -.687E+00 0.369E+00   0.000E+00 0.000E+00 0.000E+00
   0.550E+02 -.268E+03 0.297E+03   -.551E+02 0.269E+03 -.298E+03   0.742E-01 -.455E+00 0.663E+00   0.000E+00 0.000E+00 0.000E+00
   0.278E+03 0.138E+03 0.235E+03   -.279E+03 -.139E+03 -.235E+03   0.512E+00 0.382E+00 0.502E+00   0.000E+00 0.000E+00 0.000E+00
   0.221E+03 -.114E+02 0.313E+03   -.221E+03 0.114E+02 -.314E+03   0.375E+00 -.234E-01 0.718E+00   0.000E+00 0.000E+00 0.000E+00
   -.355E+01 -.125E+03 -.383E+03   0.359E+01 0.126E+03 0.383E+03   -.446E-01 -.348E+00 -.723E+00   0.000E+00 0.000E+00 0.000E+00
   -.444E+02 -.243E+03 -.321E+03   0.445E+02 0.243E+03 0.322E+03   -.504E-01 -.387E+00 -.707E+00   0.000E+00 0.000E+00 0.000E+00
   0.145E+03 0.110E+03 -.350E+03   -.145E+03 -.111E+03 0.351E+03   0.393E+00 0.278E+00 -.645E+00   0.000E+00 0.000E+00 0.000E+00
   0.236E+03 0.180E+03 -.259E+03   -.236E+03 -.180E+03 0.260E+03   0.424E+00 0.304E+00 -.621E+00   0.000E+00 0.000E+00 0.000E+00
   -.240E+02 -.375E+03 -.867E+02   0.240E+02 0.376E+03 0.868E+02   0.693E-02 -.815E+00 -.610E-01   0.000E+00 0.000E+00 0.000E+00
   0.406E+02 -.379E+03 0.473E+02   -.406E+02 0.380E+03 -.472E+02   0.273E-01 -.803E+00 -.226E-01   0.000E+00 0.000E+00 0.000E+00
   0.367E+03 0.170E+03 -.131E+02   -.367E+03 -.170E+03 0.130E+02   0.753E+00 0.267E+00 0.792E-01   0.000E+00 0.000E+00 0.000E+00
   0.374E+03 0.921E+02 0.960E+02   -.375E+03 -.923E+02 -.961E+02   0.763E+00 0.247E+00 0.115E+00   0.000E+00 0.000E+00 0.000E+00
   0.211E+03 -.263E+03 0.217E+03   -.211E+03 0.263E+03 -.217E+03   0.508E+00 -.438E+00 0.465E+00   0.000E+00 0.000E+00 0.000E+00
   0.285E+03 -.150E+03 0.222E+03   -.285E+03 0.150E+03 -.222E+03   0.529E+00 -.398E+00 0.458E+00   0.000E+00 0.000E+00 0.000E+00
   0.147E+03 -.683E+02 -.357E+03   -.148E+03 0.685E+02 0.358E+03   0.404E+00 -.198E+00 -.670E+00   0.000E+00 0.000E+00 0.000E+00
   0.645E+02 -.324E+03 -.225E+03   -.648E+02 0.325E+03 0.225E+03   0.249E+00 -.641E+00 -.434E+00   0.000E+00 0.000E+00 0.000E+00
   0.349E+03 0.899E+02 -.156E+03   -.349E+03 -.899E+02 0.156E+03   0.725E+00 0.452E-01 -.350E+00   0.000E+00 0.000E+00 0.000E+00
   0.206E+03 -.333E+03 0.657E+02   -.207E+03 0.334E+03 -.657E+02   0.476E+00 -.645E+00 0.364E-01   0.000E+00 0.000E+00 0.000E+00
   0.378E+03 -.865E+02 0.882E+02   -.379E+03 0.867E+02 -.883E+02   0.781E+00 -.231E+00 0.878E-01   0.000E+00 0.000E+00 0.000E+00
   0.240E+03 -.144E+03 -.272E+03   -.240E+03 0.144E+03 0.273E+03   0.432E+00 -.225E+00 -.649E+00   0.000E+00 0.000E+00 0.000E+00
   0.198E+03 -.284E+03 -.202E+03   -.198E+03 0.285E+03 0.202E+03   0.289E+00 -.624E+00 -.426E+00   0.000E+00 0.000E+00 0.000E+00
   0.351E+03 -.582E+02 -.162E+03   -.351E+03 0.582E+02 0.162E+03   0.727E+00 0.395E-02 -.353E+00   0.000E+00 0.000E+00 0.000E+00
   0.278E+03 -.289E+03 -.460E+02   -.278E+03 0.290E+03 0.460E+02   0.495E+00 -.641E+00 0.530E-02   0.000E+00 0.000E+00 0.000E+00
   0.372E+03 -.153E+03 -.270E+02   -.373E+03 0.153E+03 0.270E+02   0.765E+00 -.247E+00 0.514E-01   0.000E+00 0.000E+00 0.000E+00
 -----------------------------------------------------------------------------------------------
   -.366E-02 0.466E-03 0.179E-03   -.341E-12 -.369E-12 0.817E-13   0.366E-02 -.475E-03 -.187E-03   0.000E+00 0.000E+00 0.000E+00
 
 
 POSITION                                       TOTAL-FORCE (eV/Angst)
 -----------------------------------------------------------------------------------
      3.27294      5.65258      9.57357        -0.004533     -0.003925      0.001682
      2.44696      4.46609      9.42767         0.002415      0.004024     -0.002749
      3.15144      6.43602      8.35603         0.004147      0.002789      0.006340
      1.81577      4.51617      8.11991        -0.001087      0.001364      0.002041
      2.25116      5.73389      7.45771        -0.001103      0.001293      0.000904
      3.36201      6.29478     10.81337        -0.012100      0.001263     -0.002941
      1.74019      3.96652     10.52658        -0.000932     -0.009777      0.000754
      3.12289      7.83294      8.42378         0.003043      0.001736     -0.000690
      0.50149      4.06443      7.95971         0.000813      0.007523      0.002610
      1.35613      6.45531      6.66048         0.003378     -0.002905     -0.000932
      2.62772      5.77557     11.95443        -0.006118     -0.000675      0.007826
      1.83247      4.63302     11.81416        -0.001935      0.005888     -0.005872
      3.33186      7.74579     10.88347         0.000033     -0.000285     -0.006167
      3.21431      8.49974      9.71123         0.005466      0.011037     -0.005798
      0.37521      3.49703     10.36024         0.001304      0.000732     -0.000103
     -0.23244      3.54501      9.10105         0.000805      0.006860      0.002586
      2.19392      8.58208      7.59522         0.000844     -0.003599     -0.002995
      1.32716      7.90612      6.72999        -0.001893      0.004344      0.002650
     -0.42782      4.81411      7.13190        -0.005907     -0.006120     -0.000794
     -0.00878      5.98677      6.49471        -0.001231     -0.009180     -0.004837
      2.14478      6.90575     12.72976        -0.002226     -0.004034     -0.002233
      2.57976      8.12350     12.06766         0.003442     -0.002802     -0.000836
      0.52396      4.57635     12.44325        -0.002125      0.002462     -0.002260
     -0.37674      3.87404     11.54487         0.005928      0.007432      0.001107
      2.34199      9.66121      9.67812         0.006293     -0.002283     -0.000439
      1.71141      9.71201      8.37041        -0.005761      0.002854     -0.000306
     -1.61532      3.97353      8.97823         0.002897     -0.002265     -0.007464
     -1.73621      4.75721      7.76091         0.000588      0.005541     -0.002699
     -0.05588      8.33416      6.60681        -0.001037     -0.001215      0.002904
     -0.88162      7.14755      6.46143         0.004635      0.002918     -0.004311
      0.88493      6.85127     13.33516        -0.003167     -0.002199     -0.000308
      0.05931      5.66473     13.18913        -0.002090      0.002985      0.002213
      1.73919      9.24133     12.03567         0.001035     -0.001025      0.001554
      1.61833     10.02507     10.81847        -0.000148      0.003082      0.000457
     -1.70834      4.28645     11.42631         0.006596     -0.000593     -0.005949
     -2.33888      4.33750     10.11853        -0.007082     -0.000470      0.000447
      0.37991     10.12441      8.25167        -0.004591     -0.003694     -0.000251
     -0.52062      9.42237      7.35305         0.002227     -0.003534     -0.000280
     -2.57673      5.87509      7.72874        -0.001189      0.007381      0.002716
     -2.14149      7.09290      7.06666         0.001074      0.005596      0.001135
      0.01196      8.01216     13.30188         0.002963      0.007043      0.004009
      0.43087      9.18486     12.66474         0.007078      0.003606     -0.000425
     -1.32356      6.09287     13.06564        -0.002290     -0.003542      0.004493
     -2.19055      5.41677     12.20095        -0.002743      0.007821      0.005174
      0.23553     10.45373     10.69539         0.001775     -0.006750     -0.002619
     -0.37210     10.50168      9.43621         0.001431      0.000327     -0.004125
     -3.21115      5.49900     10.08524        -0.004642     -0.005744      0.004912
     -3.32854      6.25312      8.91305        -0.000442     -0.001830      0.002571
     -1.82921      9.36589      7.98194         0.002006     -0.007462      0.004206
     -2.62444      8.22330      7.84159         0.005677     -0.000808     -0.003443
     -1.35281      7.54364     13.13561        -0.004955      0.001281     -0.000142
     -0.49835      9.93441     11.83662        -0.002321     -0.006404      0.000666
     -3.11944      6.16620     11.37244        -0.003619     -0.009316     -0.000523
     -1.73709     10.03255      9.26951         0.004955      0.009696     -0.003255
     -3.35850      7.70419      8.98285         0.009430     -0.004548     -0.000546
     -2.24787      8.26513     12.33837         0.001664     -0.002282     -0.001218
     -1.81262      9.48285     11.67617         0.002860     -0.001163      0.001423
     -3.14796      7.56308     11.43986        -0.003875     -0.004541     -0.000576
     -2.44363      9.53297     10.36833        -0.005641     -0.003637      0.008616
     -3.26938      8.34655     10.22240        -0.000019     -0.000269      0.002092
 -----------------------------------------------------------------------------------
    total drift:                               -0.000003     -0.000009     -0.000007


--------------------------------------------------------------------------------------------------------



  FREE ENERGIE OF THE ION-ELECTRON SYSTEM (eV)
  ---------------------------------------------------
  free  energy   TOTEN  =      -531.13444487 eV

  energy  without entropy=     -531.13444487  energy(sigma->0) =     -531.13444487
 


--------------------------------------------------------------------------------------------------------


    POTLOK:  cpu time      0.3425: real time      0.3430


--------------------------------------------------------------------------------------------------------


     LOOP+:  cpu time   1608.5675: real time   1613.8201
    4ORBIT:  cpu time      0.0000: real time      0.0000

 total amount of memory used by VASP MPI-rank0   230629. kBytes
=======================================================================

   base      :      30000. kBytes
   nonl-proj :      75661. kBytes
   fftplans  :      52487. kBytes
   grid      :      66348. kBytes
   one-center:        184. kBytes
   wavefun   :       5949. kBytes
 
  
  
 General timing and accounting informations for this job:
 ========================================================
  
                  Total CPU time used (sec):     1616.290
                            User time (sec):     1602.734
                          System time (sec):       13.555
                         Elapsed time (sec):     1623.424
  
                   Maximum memory used (kb):      534804.
                   Average memory used (kb):          N/A
  
                          Minor page faults:       943286
                          Major page faults:          266
                 Voluntary context switches:        20030
