 vasp.6.4.3 19Mar24 (build Jun 01 2024 10:57:29) complex                        
  
 executed on             LinuxIFC date 2026.01.16  00:14:20
 running   32 mpi-ranks, on    1 nodes
 distrk:  each k-point on   32 cores,    1 groups
 distr:  one band on NCORE=   1 cores,   32 groups


--------------------------------------------------------------------------------------------------------


 INCAR:
   SYSTEM = C60 BEC example8 L-14 m1
   ENCUT = 520
   PREC = Accurate
   EDIFF = 1E-8
   NELM = 200
   ALGO = Normal
   LREAL = .FALSE.
   ADDGRID = .TRUE.
   LASPH = .TRUE.
   ISMEAR = 0
   SIGMA = 0.05
   NSW = 0
   IBRION = -1
   ISYM = 0
   LCALCEPS = .TRUE.
   LPEAD = .TRUE.
   LWAVE = .FALSE.
   LCHARG = .FALSE.
   EFIELD_PEAD = -0.05 -0.05 -0.05

 POTCAR:    PAW_PBE C 08Apr2002                   
 -----------------------------------------------------------------------------
|                                                                             |
|           W    W    AA    RRRRR   N    N  II  N    N   GGGG   !!!           |
|           W    W   A  A   R    R  NN   N  II  NN   N  G    G  !!!           |
|           W    W  A    A  R    R  N N  N  II  N N  N  G       !!!           |
|           W WW W  AAAAAA  RRRRR   N  N N  II  N  N N  G  GGG   !            |
|           WW  WW  A    A  R   R   N   NN  II  N   NN  G    G                |
|           W    W  A    A  R    R  N    N  II  N    N   GGGG   !!!           |
|                                                                             |
|     For optimal performance we recommend to set                             |
|       NCORE = 2 up to number-of-cores-per-socket                            |
|     NCORE specifies how many cores store one orbital (NPAR=cpu/NCORE).      |
|     This setting can greatly improve the performance of VASP for DFT.       |
|     The default, NCORE=1 might be grossly inefficient on modern             |
|     multi-core architectures or massively parallel machines. Do your        |
|     own testing! More info at https://www.vasp.at/wiki/index.php/NCORE      |
|     Unfortunately you need to use the default for GW and RPA                |
|     calculations (for HF NCORE is supported but not extensively tested      |
|     yet).                                                                   |
|                                                                             |
 -----------------------------------------------------------------------------

 POTCAR:    PAW_PBE C 08Apr2002                   
   VRHFIN =C: s2p2                                                                                  
   LEXCH  = PE                                                                                      
   EATOM  =   147.1560 eV,   10.8157 Ry                                                             
                                                                                                    
   TITEL  = PAW_PBE C 08Apr2002                                                                     
   LULTRA =        F    use ultrasoft PP ?                                                          
   IUNSCR =        1    unscreen: 0-lin 1-nonlin 2-no                                               
   RPACOR =    1.200    partial core radius                                                         
   POMASS =   12.011; ZVAL   =    4.000    mass and valenz                                          
   RCORE  =    1.500    outmost cutoff radius                                                       
   RWIGS  =    1.630; RWIGS  =    0.863    wigner-seitz radius (au A)                               
   ENMAX  =  400.000; ENMIN  =  300.000 eV                                                          
   ICORE  =        2    local potential                                                             
   LCOR   =        T    correct aug charges                                                         
   LPAW   =        T    paw PP                                                                      
   EAUG   =  644.873                                                                                
   DEXC   =    0.000                                                                                
   RMAX   =    1.529    core radius for proj-oper                                                   
   RAUG   =    1.300    factor for augmentation sphere                                              
   RDEP   =    1.501    radius for radial grids                                                     
   RDEPT  =    1.300    core radius for aug-charge                                                  
                                                                                                    
   Atomic configuration                                                                             
    4 entries                                                                                       
     n  l   j            E        occ.                                                              
     1  0  0.50      -273.3789   2.0000                                                             
     2  0  0.50       -13.7508   2.0000                                                             
     2  1  0.50        -5.2854   2.0000                                                             
     3  2  1.50        -5.4423   0.0000                                                             
   Description                                                                                      
     l       E           TYP  RCUT    TYP  RCUT                                                     
     0    -13.7508458     23  1.200                                                                 
     0     -8.2022199     23  1.200                                                                 
     1     -5.2854383     23  1.500                                                                 
     1     34.0145650     23  1.500                                                                 
     2     -5.4423304      7  1.500                                                                 
  local pseudopotential read in
  partial core-charges read in
  partial kinetic energy density read in
  atomic valenz-charges read in
  non local Contribution for L=           0  read in
    real space projection operators read in
  non local Contribution for L=           0  read in
    real space projection operators read in
  non local Contribution for L=           1  read in
    real space projection operators read in
  non local Contribution for L=           1  read in
    real space projection operators read in
    PAW grid and wavefunctions read in
 
   number of l-projection  operators is LMAX  =           4
   number of lm-projection operators is LMMAX =           8
 
 -----------------------------------------------------------------------------
|                                                                             |
|               ----> ADVICE to this user running VASP <----                  |
|                                                                             |
|     You have a (more or less) 'large supercell' and for larger cells it     |
|     might be more efficient to use real-space projection operators.         |
|     Therefore, try LREAL= Auto in the INCAR file.                           |
|     Mind: For very accurate calculation, you might also keep the            |
|     reciprocal projection scheme (i.e. LREAL=.FALSE.).                      |
|                                                                             |
 -----------------------------------------------------------------------------

  PAW_PBE C 08Apr2002                   :
 energy of atom  1       EATOM= -147.1560
 kinetic energy error for atom=    0.0071 (will be added to EATOM!!)
 
 
 POSCAR: C60 | isolated, centered, L=14.0 Å, vac
  positions in direct lattice
  velocities in cartesian coordinates


 exchange-correlation table for PE
   RHO(1)=    0.500       N(1)  =     2000
   RHO(2)=  100.500       N(2)  =     4000
 


--------------------------------------------------------------------------------------------------------


 ion  position               nearest neighbor table
   1  0.649  0.404  0.318-   6 1.40   3 1.45   2 1.45
   2  0.600  0.319  0.353-   7 1.40   4 1.45   1 1.45
   3  0.581  0.460  0.263-   8 1.40   5 1.45   1 1.45
   4  0.502  0.323  0.318-   9 1.40   5 1.45   2 1.45
   5  0.490  0.410  0.263-  10 1.40   3 1.45   4 1.45
   6  0.716  0.450  0.376-   1 1.40  11 1.45  13 1.45
   7  0.620  0.283  0.444-   2 1.40  12 1.45  15 1.45
   8  0.583  0.559  0.268-   3 1.40  14 1.45  17 1.45
   9  0.427  0.290  0.377-   4 1.40  19 1.45  16 1.45
  10  0.405  0.461  0.268-   5 1.40  20 1.45  18 1.45
  11  0.737  0.413  0.471-  12 1.40   6 1.45  21 1.45
  12  0.689  0.331  0.504-  11 1.40   7 1.45  23 1.45
  13  0.718  0.553  0.381-  14 1.40  22 1.45   6 1.45
  14  0.653  0.607  0.328-  13 1.40   8 1.45  25 1.45
  15  0.542  0.250  0.504-  16 1.40  24 1.45   7 1.45
  16  0.448  0.253  0.471-  15 1.40  27 1.45   9 1.45
  17  0.494  0.613  0.273-  18 1.40  26 1.45   8 1.45
  18  0.407  0.565  0.273-  17 1.40  10 1.45  29 1.45
  19  0.339  0.344  0.382-  20 1.40  28 1.45   9 1.45
  20  0.328  0.428  0.328-  19 1.40  10 1.45  30 1.45
  21  0.751  0.493  0.535-  31 1.40  22 1.45  11 1.45
  22  0.740  0.580  0.479-  33 1.40  21 1.45  13 1.45
  23  0.655  0.327  0.602-  32 1.40  12 1.45  24 1.45
  24  0.564  0.277  0.602-  35 1.40  15 1.45  23 1.45
  25  0.607  0.690  0.371-  34 1.40  26 1.45  14 1.45
  26  0.509  0.694  0.336-  37 1.40  25 1.45  17 1.45
  27  0.372  0.284  0.535-  36 1.40  28 1.45  16 1.45
  28  0.304  0.340  0.480-  39 1.40  27 1.45  19 1.45
  29  0.331  0.595  0.337-  38 1.40  30 1.45  18 1.45
  30  0.282  0.511  0.371-  40 1.40  20 1.45  29 1.45
  31  0.718  0.489  0.629-  21 1.40  41 1.45  32 1.45
  32  0.669  0.405  0.663-  23 1.40  31 1.45  43 1.45
  33  0.696  0.660  0.520-  22 1.40  34 1.45  42 1.45
  34  0.628  0.716  0.465-  25 1.40  33 1.45  45 1.45
  35  0.491  0.306  0.663-  24 1.40  44 1.45  36 1.45
  36  0.393  0.310  0.629-  27 1.40  35 1.45  47 1.45
  37  0.436  0.723  0.398-  26 1.40  46 1.45  38 1.45
  38  0.345  0.673  0.398-  29 1.40  49 1.45  37 1.45
  39  0.260  0.420  0.521-  28 1.40  48 1.45  40 1.45
  40  0.249  0.507  0.465-  30 1.40  39 1.45  50 1.45
  41  0.672  0.572  0.671-  42 1.40  51 1.45  31 1.45
  42  0.661  0.656  0.618-  41 1.40  33 1.45  52 1.45
  43  0.593  0.435  0.727-  44 1.40  51 1.45  32 1.45
  44  0.506  0.387  0.727-  43 1.40  35 1.45  53 1.45
  45  0.552  0.747  0.528-  46 1.40  52 1.45  34 1.45
  46  0.458  0.750  0.495-  45 1.40  37 1.45  54 1.45
  47  0.347  0.393  0.672-  48 1.40  53 1.45  36 1.45
  48  0.282  0.447  0.618-  47 1.40  39 1.45  55 1.45
  49  0.311  0.669  0.496-  50 1.40  54 1.45  38 1.45
  50  0.264  0.587  0.529-  49 1.40  55 1.45  40 1.45
  51  0.595  0.539  0.732-  56 1.40  41 1.45  43 1.45
  52  0.573  0.710  0.623-  57 1.40  45 1.45  42 1.45
  53  0.417  0.440  0.732-  58 1.40  47 1.45  44 1.45
  54  0.380  0.717  0.556-  59 1.40  49 1.45  46 1.45
  55  0.284  0.550  0.623-  60 1.40  50 1.45  48 1.45
  56  0.510  0.590  0.737-  51 1.40  58 1.45  57 1.45
  57  0.498  0.677  0.681-  52 1.40  56 1.45  59 1.45
  58  0.419  0.540  0.737-  53 1.40  56 1.45  60 1.45
  59  0.400  0.681  0.647-  54 1.40  60 1.45  57 1.45
  60  0.351  0.596  0.681-  55 1.40  59 1.45  58 1.45
 

IMPORTANT INFORMATION: All symmetrisations will be switched off!
NOSYMM: (Re-)initialisation of all symmetry stuff for point group C_1.


----------------------------------------------------------------------------------------

                                     Primitive cell                                     

  volume of cell :    2744.0000

  direct lattice vectors                    reciprocal lattice vectors
    14.000000000  0.000000000  0.000000000     0.071428571  0.000000000  0.000000000
     0.000000000 14.000000000  0.000000000     0.000000000  0.071428571  0.000000000
     0.000000000  0.000000000 14.000000000     0.000000000  0.000000000  0.071428571

  length of vectors
    14.000000000 14.000000000 14.000000000     0.071428571  0.071428571  0.071428571

  position of ions in fractional coordinates (direct lattice)
     0.648846297  0.403755720  0.318229930
     0.599759418  0.319006451  0.352579141
     0.581214867  0.459715760  0.262871689
     0.501827740  0.322583737  0.318406897
     0.490371812  0.409563572  0.262970726
     0.715964597  0.449627468  0.376350615
     0.619565770  0.283322667  0.443779792
     0.583194916  0.559495909  0.267735791
     0.427355172  0.290316628  0.376697176
     0.404899942  0.461093436  0.267910517
     0.736509976  0.412540453  0.471069816
     0.689259118  0.330929882  0.504151426
     0.717982347  0.553271002  0.381413898
     0.652838375  0.607124448  0.328144300
     0.542222218  0.249788057  0.504319797
     0.447932353  0.253215088  0.471412596
     0.494426259  0.613005467  0.272807192
     0.406947807  0.564722693  0.272884160
     0.338607034  0.343865235  0.381823353
     0.327588766  0.427626345  0.328475588
     0.751277685  0.493267774  0.534622278
     0.739806195  0.580250170  0.479211055
     0.654943088  0.326882400  0.602014685
     0.564075845  0.276717303  0.602132414
     0.607107183  0.690086333  0.370530783
     0.509209007  0.693714954  0.336330545
     0.371883226  0.283823690  0.535054914
     0.304292831  0.339800467  0.479676966
     0.330872211  0.595297165  0.336516754
     0.281823266  0.510539506  0.370880212
     0.718223068  0.489376590  0.628831996
     0.669147385  0.404623268  0.663155726
     0.695735641  0.660095243  0.520050836
     0.628153146  0.716076396  0.464676993
     0.490831425  0.306175080  0.663399729
     0.392931172  0.309821376  0.629194218
     0.435960504  0.723172250  0.397584165
     0.345090119  0.673026114  0.397680484
     0.260216127  0.419649363  0.520504744
     0.248758320  0.506635557  0.465081746
     0.672450297  0.572297374  0.671242330
     0.661428159  0.656061342  0.617904155
     0.593064847  0.435204741  0.726764416
     0.505601742  0.386912206  0.726880734
     0.552094808  0.746695097  0.528303146
     0.457806378  0.750119696  0.495394333
     0.347193934  0.392786018  0.671569253
     0.282060326  0.446651226  0.618293655
     0.310759811  0.668992112  0.495538292
     0.263505641  0.587378694  0.528614584
     0.595121498  0.538831695  0.731775987
     0.572668742  0.709600964  0.623010104
     0.416839288  0.440442638  0.731950245
     0.380444356  0.716610770  0.555917352
     0.284072451  0.550299078  0.623332590
     0.509647233  0.590366368  0.736716258
     0.498184532  0.677346679  0.681286888
     0.418804147  0.540219676  0.736795970
     0.400257455  0.680926465  0.647101716
     0.351180562  0.596181860  0.681438200

  ion indices of the primitive-cell ions
   primitive index   ion index
                 1           1
                 2           2
                 3           3
                 4           4
                 5           5
                 6           6
                 7           7
                 8           8
                 9           9
                10          10
                11          11
                12          12
                13          13
                14          14
                15          15
                16          16
                17          17
                18          18
                19          19
                20          20
                21          21
                22          22
                23          23
                24          24
                25          25
                26          26
                27          27
                28          28
                29          29
                30          30
                31          31
                32          32
                33          33
                34          34
                35          35
                36          36
                37          37
                38          38
                39          39
                40          40
                41          41
                42          42
                43          43
                44          44
                45          45
                46          46
                47          47
                48          48
                49          49
                50          50
                51          51
                52          52
                53          53
                54          54
                55          55
                56          56
                57          57
                58          58
                59          59
                60          60

----------------------------------------------------------------------------------------

 
 
 KPOINTS: Automatic mesh                          

Automatic generation of k-mesh.
 Grid dimensions read from file:
 generate k-points for:    1    1    1

 Generating k-lattice:

  Cartesian coordinates                     Fractional coordinates (reciprocal lattice)
     0.071428571  0.000000000  0.000000000     1.000000000  0.000000000  0.000000000
     0.000000000  0.071428571  0.000000000     0.000000000  1.000000000  0.000000000
     0.000000000  0.000000000  0.071428571     0.000000000  0.000000000  1.000000000

  Length of vectors
     0.071428571  0.071428571  0.071428571

  Shift w.r.t. Gamma in fractional coordinates (k-lattice)
     0.000000000  0.000000000  0.000000000

 
 Subroutine IBZKPT returns following result:
 ===========================================
 
 Found      1 irreducible k-points:
 
 Following reciprocal coordinates:
            Coordinates               Weight
  0.000000  0.000000  0.000000      1.000000
 
 Following cartesian coordinates:
            Coordinates               Weight
  0.000000  0.000000  0.000000      1.000000
 
 
 Subroutine IBZKPT_HF returns following result:
 ==============================================
 
 Found      1 k-points in 1st BZ
 the following      1 k-points will be used (e.g. in the exchange kernel)
 Following reciprocal coordinates:   # in IRBZ
  0.000000  0.000000  0.000000    1.00000000   1 t-inv F


--------------------------------------------------------------------------------------------------------




 Dimension of arrays:
   k-points           NKPTS =      1   k-points in BZ     NKDIM =      1   number of bands    NBANDS=    160
   number of dos      NEDOS =    301   number of ions     NIONS =     60
   non local maximal  LDIM  =      4   non local SUM 2l+1 LMDIM =      8
   total plane-waves  NPLWV = ******
   max r-space proj   IRMAX =      1   max aug-charges    IRDMAX=  43535
   dimension x,y,z NGX =   108 NGY =  108 NGZ =  108
   dimension x,y,z NGXF=   216 NGYF=  216 NGZF=  216
   support grid    NGXF=   432 NGYF=  432 NGZF=  432
   ions per type =              60
   NGX,Y,Z   is equivalent  to a cutoff of  12.82, 12.82, 12.82 a.u.
   NGXF,Y,Z  is equivalent  to a cutoff of  25.65, 25.65, 25.65 a.u.

 SYSTEM =  C60 BEC example8 L-14 m1                
 POSCAR =  C60 | isolated, centered, L=14.0 Å, vac

 Startparameter for this run:
   NWRITE =      2    write-flag & timer
   PREC   = accura    normal or accurate (medium, high low for compatibility)
   ISTART =      0    job   : 0-new  1-cont  2-samecut
   ICHARG =      2    charge: 1-file 2-atom 10-const
   ISPIN  =      1    spin polarized calculation?
   LNONCOLLINEAR =      F non collinear calculations
   LSORBIT =      F    spin-orbit coupling
   INIWAV =      1    electr: 0-lowe 1-rand  2-diag
   LASPH  =      T    aspherical Exc in radial PAW
 Electronic Relaxation 1
   ENCUT  =  520.0 eV  38.22 Ry    6.18 a.u.  26.03 26.03 26.03*2*pi/ulx,y,z
   ENINI  =  520.0     initial cutoff
   ENAUG  =  644.9 eV  augmentation charge cutoff
   NELM   =    200;   NELMIN=  2; NELMDL= -5     # of ELM steps 
   EDIFF  = 0.1E-07   stopping-criterion for ELM
   LREAL  =      F    real-space projection
   NLSPLINE    = F    spline interpolate recip. space projectors
   LCOMPAT=      F    compatible to vasp.4.4
   GGA_COMPAT  = T    GGA compatible to vasp.4.4-vasp.4.6
   LMAXPAW     = -100 max onsite density
   LMAXMIX     =    2 max onsite mixed and CHGCAR
   VOSKOWN=      0    Vosko Wilk Nusair interpolation
   ROPT   =    0.00000
 Ionic relaxation
   EDIFFG = 0.1E-06   stopping-criterion for IOM
   NSW    =      0    number of steps for IOM
   NBLOCK =      1;   KBLOCK =      1    inner block; outer block 
   IBRION =     -1    ionic relax: 0-MD 1-quasi-New 2-CG
   NFREE  =      0    steps in history (QN), initial steepest desc. (CG)
   ISIF   =      2    stress and relaxation
   IWAVPR =     10    prediction:  0-non 1-charg 2-wave 3-comb
   ISYM   =      0    0-nonsym 1-usesym 2-fastsym
   LCORR  =      T    Harris-Foulkes like correction to forces

   POTIM  = 0.5000    time-step for ionic-motion
   TEIN   =    0.0    initial temperature
   TEBEG  =    0.0;   TEEND  =   0.0 temperature during run
   SMASS  =  -3.00    Nose mass-parameter (am)
   estimated Nose-frequenzy (Omega)   =  0.10E-29 period in steps = 0.13E+47 mass=  -0.448E-26a.u.
   SCALEE = 1.0000    scale energy and forces
   NPACO  =    256;   APACO  = 10.0  distance and # of slots for P.C.
   PSTRESS=    0.0 pullay stress

  Mass of Ions in am
   POMASS =  12.01
  Ionic Valenz
   ZVAL   =   4.00
  Atomic Wigner-Seitz radii
   RWIGS  =  -1.00
  virtual crystal weights 
   VCA    =   1.00
   NELECT =     240.0000    total number of electrons
   NUPDOWN=      -1.0000    fix difference up-down

 DOS related values:
   EMIN   =  10.00;   EMAX   =-10.00  energy-range for DOS
   EFERMI =   0.00;   METHOD = LEGACY      
   ISMEAR =     0;   SIGMA  =   0.05  broadening in eV -4-tet -1-fermi 0-gaus

 Electronic relaxation 2 (details)
   IALGO  =     38    algorithm
   LDIAG  =      T    sub-space diagonalisation (order eigenvalues)
   LSUBROT=      F    optimize rotation matrix (better conditioning)
   TURBO    =      0    0=normal 1=particle mesh
   IRESTART =      0    0=no restart 2=restart with 2 vectors
   NREBOOT  =      0    no. of reboots
   NMIN     =      0    reboot dimension
   EREF     =   0.00    reference energy to select bands
   IMIX   =      4    mixing-type and parameters
     AMIX     =   0.40;   BMIX     =  1.00
     AMIX_MAG =   1.60;   BMIX_MAG =  1.00
     AMIN     =   0.10
     WC   =   100.;   INIMIX=   1;  MIXPRE=   1;  MAXMIX= -45

 Intra band minimization:
   WEIMIN = 0.0000     energy-eigenvalue tresh-hold
   EBREAK =  0.16E-10  absolut break condition
   DEPER  =   0.30     relativ break condition  

   TIME   =   0.40     timestep for ELM

  volume/ion in A,a.u.               =      45.73       308.62
  Fermi-wavevector in a.u.,A,eV,Ry     =   0.726692  1.373249  7.184987  0.528082
  Thomas-Fermi vector in A             =   1.817729
 
 Write flags
   LWAVE        =      F    write WAVECAR
   LDOWNSAMPLE  =      F    k-point downsampling of WAVECAR
   LCHARG       =      F    write CHGCAR
   LVTOT        =      F    write LOCPOT, total local potential
   LVHAR        =      F    write LOCPOT, Hartree potential only
   WRT_POTENTIAL= false  ! write potential to hdf5 file
   LELF         =      F    write electronic localiz. function (ELF)
   LORBIT       =      0    0 simple, 1 ext, 2 COOP (PROOUT), +10 PAW based schemes


 Dipole corrections
   LMONO      =      F    monopole corrections only (constant potential shift)
   LDIPOL     =      F    correct potential (dipole corrections)
   IDIPOL     =      0    1-x, 2-y, 3-z, 4-all directions 
   EPSILON    =  1.0000000 bulk dielectric constant
   LVACPOTAV  =      F  vacuum potentials using an averaging scheme for the charge density
   VACPOTFLAT =  0.1000000 required flatness to determine vacuum potential
 Exchange correlation treatment:
   GGA     = PE    functional components
   XC_C    = 1    coefficients multiplying the functional components
   LIBXC   =     F    Libxc                    
   VOSKOWN =     0    Vosko Wilk Nusair interpolation
   LHFCALC =     F    Hartree Fock is set to
   LHFONE  =     F    Hartree Fock one center treatment
   AEXX    =    0.0000 exact exchange contribution

 Parameters of functionals:
   PE:
     No parameter
 
 Van der Waals corrections
   IVDW    =     0    specifies the selected vdW correction

 Linear response parameters
   LEPSILON=     F    determine dielectric tensor
   LRPA    =     F    only Hartree local field effects (RPA)
   LNABLA  =     F    use nabla operator in PAW spheres
   LVEL    =     F    velocity operator in full k-point grid
   CSHIFT  =0.1000    complex shift for real part using Kramers Kronig
   OMEGAMAX=  -1.0    maximum frequency
   DEG_THRESHOLD= 0.2000000E-02 threshold for treating states as degnerate
   RTIME   =   -0.100 relaxation time in fs
  (WPLASMAI=    0.000 imaginary part of plasma frequency in eV, 0.658/RTIME)
   DFIELD  = 0.0000000 0.0000000 0.0000000 field for delta impulse in time
 
  Optional k-point grid parameters
   LKPOINTS_OPT  =     F    use optional k-point grid
   KPOINTS_OPT_MODE=     1    mode for optional k-point grid
 
 Orbital magnetization related:
   ORBITALMAG=     F  switch on orbital magnetization
   LCHIMAG   =     F  perturbation theory with respect to B field
   DQ        =  0.001000  dq finite difference perturbation B field
   LLRAUG    =     F  two centre corrections for induced B field
   LBONE     =     F  B-component reconstruction in AE one-centre
   LVGVCALC  =     T  calculate vGv susceptibility
   LVGVAPPL  =     F  apply vGv susceptibility instead of pGv for G=0

 PEAD related settings:
   LPEAD      =     T    switch on PEAD
   IPEAD      =     4    finite difference order for dpsi/dk
   LCALCPOL   =     F    calculate macroscopic polarization
   LCALCEPS   =     T    calculate dielectric tensor
   EFIELD_PEAD=   -0.0500   -0.0500   -0.0500
   SKIP_EDOTP =     F
   LRPA       =     F
   SKIP_SCF   =     F
 Random number generation:
   RANDOM_GENERATOR = DEFAULT
   PCG_SEED         = not used


--------------------------------------------------------------------------------------------------------


 Static calculation
 charge density and potential will be updated during run
 non-spin polarized calculation
 Variant of blocked Davidson
 Davidson routine will perform the subspace rotation
 perform sub-space diagonalisation
    after iterative eigenvector-optimisation
 modified Broyden-mixing scheme, WC =      100.0
 initial mixing is a Kerker type mixing with AMIX =  0.4000 and BMIX =      1.0000
 Hartree-type preconditioning will be used
 using additional bands           40
 reciprocal scheme for non local part
 use partial core corrections
 calculate Harris-corrections to forces 
   (improved forces if not selfconsistent)
 use gradient corrections 
 use of overlap-Matrix (Vanderbilt PP)
 Gauss-broadening in eV      SIGMA  =   0.05


--------------------------------------------------------------------------------------------------------


  energy-cutoff  :      520.00
  volume of cell :     2744.00
      direct lattice vectors                 reciprocal lattice vectors
     14.000000000   0.000000000   0.000000000      0.071428571   0.000000000   0.000000000
      0.000000000  14.000000000   0.000000000      0.000000000   0.071428571   0.000000000
      0.000000000   0.000000000  14.000000000      0.000000000   0.000000000   0.071428571

  length of vectors
     14.000000000  14.000000000  14.000000000      0.071428571   0.071428571   0.071428571


 
 k-points in units of 2pi/SCALE and weight: Automatic mesh                          
   0.00000000  0.00000000  0.00000000       1.000
 
 k-points in reciprocal lattice and weights: Automatic mesh                          
   0.00000000  0.00000000  0.00000000       1.000
 
 position of ions in fractional coordinates (direct lattice) 
   0.64884630  0.40375572  0.31822993
   0.59975942  0.31900645  0.35257914
   0.58121487  0.45971576  0.26287169
   0.50182774  0.32258374  0.31840690
   0.49037181  0.40956357  0.26297073
   0.71596460  0.44962747  0.37635061
   0.61956577  0.28332267  0.44377979
   0.58319492  0.55949591  0.26773579
   0.42735517  0.29031663  0.37669718
   0.40489994  0.46109344  0.26791052
   0.73650998  0.41254045  0.47106982
   0.68925912  0.33092988  0.50415143
   0.71798235  0.55327100  0.38141390
   0.65283838  0.60712445  0.32814430
   0.54222222  0.24978806  0.50431980
   0.44793235  0.25321509  0.47141260
   0.49442626  0.61300547  0.27280719
   0.40694781  0.56472269  0.27288416
   0.33860703  0.34386524  0.38182335
   0.32758877  0.42762635  0.32847559
   0.75127768  0.49326777  0.53462228
   0.73980620  0.58025017  0.47921105
   0.65494309  0.32688240  0.60201469
   0.56407584  0.27671730  0.60213241
   0.60710718  0.69008633  0.37053078
   0.50920901  0.69371495  0.33633054
   0.37188323  0.28382369  0.53505491
   0.30429283  0.33980047  0.47967697
   0.33087221  0.59529717  0.33651675
   0.28182327  0.51053951  0.37088021
   0.71822307  0.48937659  0.62883200
   0.66914738  0.40462327  0.66315573
   0.69573564  0.66009524  0.52005084
   0.62815315  0.71607640  0.46467699
   0.49083142  0.30617508  0.66339973
   0.39293117  0.30982138  0.62919422
   0.43596050  0.72317225  0.39758416
   0.34509012  0.67302611  0.39768048
   0.26021613  0.41964936  0.52050474
   0.24875832  0.50663556  0.46508175
   0.67245030  0.57229737  0.67124233
   0.66142816  0.65606134  0.61790416
   0.59306485  0.43520474  0.72676442
   0.50560174  0.38691221  0.72688073
   0.55209481  0.74669510  0.52830315
   0.45780638  0.75011970  0.49539433
   0.34719393  0.39278602  0.67156925
   0.28206033  0.44665123  0.61829365
   0.31075981  0.66899211  0.49553829
   0.26350564  0.58737869  0.52861458
   0.59512150  0.53883170  0.73177599
   0.57266874  0.70960096  0.62301010
   0.41683929  0.44044264  0.73195025
   0.38044436  0.71661077  0.55591735
   0.28407245  0.55029908  0.62333259
   0.50964723  0.59036637  0.73671626
   0.49818453  0.67734668  0.68128689
   0.41880415  0.54021968  0.73679597
   0.40025746  0.68092647  0.64710172
   0.35118056  0.59618186  0.68143820
 
 position of ions in cartesian coordinates  (Angst):
   9.08384816  5.65258008  4.45521903
   8.39663185  4.46609031  4.93610797
   8.13700814  6.43602064  3.68020364
   7.02558836  4.51617232  4.45769655
   6.86520537  5.73389001  3.68159016
  10.02350436  6.29478455  5.26890860
   8.67392078  3.96651734  6.21291709
   8.16472882  7.83294272  3.74830108
   5.98297241  4.06443280  5.27376046
   5.66859919  6.45530811  3.75074724
  10.31113967  5.77556634  6.59497743
   9.64962765  4.63301835  7.05811997
  10.05175285  7.74579403  5.33979457
   9.13973725  8.49974227  4.59402020
   7.59111105  3.49703279  7.06047716
   6.27105294  3.54501123  6.59977634
   6.92196763  8.58207653  3.81930069
   5.69726930  7.90611770  3.82037825
   4.74049847  4.81411329  5.34552694
   4.58624272  5.98676883  4.59865824
  10.51788758  6.90574884  7.48471189
  10.35728673  8.12350238  6.70895476
   9.16920323  4.57635360  8.42820560
   7.89706183  3.87404224  8.42985380
   8.49950056  9.66120866  5.18743096
   7.12892610  9.71200936  4.70862763
   5.20636516  3.97353166  7.49076880
   4.26009963  4.75720654  6.71547752
   4.63221095  8.33416031  4.71123456
   3.94552573  7.14755308  5.19232297
  10.05512296  6.85127226  8.80364795
   9.36806339  5.66472575  9.28418016
   9.74029897  9.24133340  7.28071170
   8.79414404 10.02506954  6.50547790
   6.87163995  4.28645111  9.28759620
   5.50103640  4.33749926  8.80871905
   6.10344705 10.12441149  5.56617831
   4.83126166  9.42236560  5.56752678
   3.64302578  5.87509108  7.28706642
   3.48261648  7.09289780  6.51114445
   9.41430415  8.01216324  9.39739262
   9.25999423  9.18485879  8.65065817
   8.30290785  6.09286637 10.17470182
   7.07842439  5.41677088 10.17633028
   7.72932731 10.45373136  7.39624404
   6.40928930 10.50167575  6.93552066
   4.86071508  5.49900425  9.40196954
   3.94884457  6.25311717  8.65611117
   4.35063736  9.36588957  6.93753608
   3.68907897  8.22330171  7.40060418
   8.33170097  7.54364373 10.24486382
   8.01736239  9.93441350  8.72214146
   5.83575003  6.16619694 10.24730343
   5.32622099 10.03255078  7.78284293
   3.97701431  7.70418709  8.72665626
   7.13506126  8.26512915 10.31402762
   6.97458344  9.48285350  9.53801644
   5.86325806  7.56307546 10.31514359
   5.60360437  9.53297051  9.05942402
   4.91652787  8.34654605  9.54013480
 


--------------------------------------------------------------------------------------------------------


 k-point     1 :   0.0000 0.0000 0.0000  plane waves:   73885

 maximum and minimum number of plane-waves per node :     73885    73885

 maximum number of plane-waves:     73885
 maximum index in each direction: 
   IXMAX=   26   IYMAX=   26   IZMAX=   26
   IXMIN=  -26   IYMIN=  -26   IZMIN=  -26


 serial   3D FFT for wavefunctions
 parallel 3D FFT for charge:
    minimum data exchange during FFTs selected (reduces bandwidth)


 total amount of memory used by VASP MPI-rank0   230629. kBytes
=======================================================================

   base      :      30000. kBytes
   nonl-proj :      75661. kBytes
   fftplans  :      52487. kBytes
   grid      :      66348. kBytes
   one-center:        184. kBytes
   wavefun   :       5949. kBytes
 
     INWAV:  cpu time      0.0000: real time      0.0001
 Broyden mixing: mesh for mixing (old mesh)
   NGX = 53   NGY = 53   NGZ = 53
  (NGX  =216   NGY  =216   NGZ  =216)
  gives a total of 148877 points

 initial charge density was supplied:
 charge density of overlapping atoms calculated
 number of electron     240.0000000 magnetization 
 keeping initial charge density in first step


--------------------------------------------------------------------------------------------------------


 Maximum index for augmentation-charges         1466 (set IRDMAX)


--------------------------------------------------------------------------------------------------------


 First call to EWALD:  gamma=   0.127
 Maximum number of real-space cells 3x 3x 3
 Maximum number of reciprocal cells 3x 3x 3

    FEWALD:  cpu time      0.0027: real time      0.0034


--------------------------------------- Ionic step        1  -------------------------------------------




--------------------------------------- Iteration      1(   1)  ---------------------------------------


    POTLOK:  cpu time      0.2636: real time      0.2698
    SETDIJ:  cpu time      0.2247: real time      0.2266
     EDDAV:  cpu time      5.0387: real time      5.0822
       DOS:  cpu time      0.0011: real time      0.0026
    --------------------------------------------
      LOOP:  cpu time      5.5281: real time      5.5811

 eigenvalue-minimisations  :   320
 total energy-change (2. order) : 0.2310514E+04  (-0.8752138E+04)
 number of electron     240.0000000 magnetization 
 augmentation part      240.0000000 magnetization 

 Free energy of the ion-electron system (eV)
  ---------------------------------------------------
  alpha Z        PSCENC =       107.77265948
  Ewald energy   TEWEN  =     24585.34044588
  -Hartree energ DENC   =    -31075.24411798
  -exchange      EXHF   =         0.00000000
  -V(xc)+E(xc)   XCENC  =       788.64363849
  PAW double counting   =      6511.32278280    -6545.48713133
  entropy T*S    EENTRO =        -0.03943873
  eigenvalues    EBANDS =      -890.72877829
  atomic energy  EATOM  =      8828.93359873
  Solvation  Ediel_sol  =         0.00000000
  ---------------------------------------------------
  free energy    TOTEN  =      2310.51365905 eV

  energy without entropy =     2310.55309778  energy(sigma->0) =     2310.53337842


--------------------------------------------------------------------------------------------------------




--------------------------------------- Iteration      1(   2)  ---------------------------------------


     EDDAV:  cpu time      7.3218: real time      7.3298
       DOS:  cpu time      0.0004: real time      0.0004
    --------------------------------------------
      LOOP:  cpu time      7.3222: real time      7.3301

 eigenvalue-minimisations  :   512
 total energy-change (2. order) :-0.2446400E+04  (-0.2376597E+04)
 number of electron     240.0000000 magnetization 
 augmentation part      240.0000000 magnetization 

 Free energy of the ion-electron system (eV)
  ---------------------------------------------------
  alpha Z        PSCENC =       107.77265948
  Ewald energy   TEWEN  =     24585.34044588
  -Hartree energ DENC   =    -31075.24411798
  -exchange      EXHF   =         0.00000000
  -V(xc)+E(xc)   XCENC  =       788.64363849
  PAW double counting   =      6511.32278280    -6545.48713133
  entropy T*S    EENTRO =        -0.00000000
  eigenvalues    EBANDS =     -3337.16779597
  atomic energy  EATOM  =      8828.93359873
  Solvation  Ediel_sol  =         0.00000000
  ---------------------------------------------------
  free energy    TOTEN  =      -135.88591989 eV

  energy without entropy =     -135.88591989  energy(sigma->0) =     -135.88591989


--------------------------------------------------------------------------------------------------------




--------------------------------------- Iteration      1(   3)  ---------------------------------------


     EDDAV:  cpu time      5.8513: real time      5.8592
       DOS:  cpu time      0.0002: real time      0.0002
    --------------------------------------------
      LOOP:  cpu time      5.8516: real time      5.8594

 eigenvalue-minimisations  :   384
 total energy-change (2. order) :-0.4179976E+03  (-0.4161681E+03)
 number of electron     240.0000000 magnetization 
 augmentation part      240.0000000 magnetization 

 Free energy of the ion-electron system (eV)
  ---------------------------------------------------
  alpha Z        PSCENC =       107.77265948
  Ewald energy   TEWEN  =     24585.34044588
  -Hartree energ DENC   =    -31075.24411798
  -exchange      EXHF   =         0.00000000
  -V(xc)+E(xc)   XCENC  =       788.64363849
  PAW double counting   =      6511.32278280    -6545.48713133
  entropy T*S    EENTRO =        -0.00000000
  eigenvalues    EBANDS =     -3755.16542318
  atomic energy  EATOM  =      8828.93359873
  Solvation  Ediel_sol  =         0.00000000
  ---------------------------------------------------
  free energy    TOTEN  =      -553.88354710 eV

  energy without entropy =     -553.88354710  energy(sigma->0) =     -553.88354710


--------------------------------------------------------------------------------------------------------




--------------------------------------- Iteration      1(   4)  ---------------------------------------


     EDDAV:  cpu time      7.6330: real time      7.7651
       DOS:  cpu time      0.0004: real time      0.0004
    --------------------------------------------
      LOOP:  cpu time      7.6334: real time      7.7656

 eigenvalue-minimisations  :   416
 total energy-change (2. order) :-0.1463519E+02  (-0.1453512E+02)
 number of electron     240.0000000 magnetization 
 augmentation part      240.0000000 magnetization 

 Free energy of the ion-electron system (eV)
  ---------------------------------------------------
  alpha Z        PSCENC =       107.77265948
  Ewald energy   TEWEN  =     24585.34044588
  -Hartree energ DENC   =    -31075.24411798
  -exchange      EXHF   =         0.00000000
  -V(xc)+E(xc)   XCENC  =       788.64363849
  PAW double counting   =      6511.32278280    -6545.48713133
  entropy T*S    EENTRO =        -0.00000000
  eigenvalues    EBANDS =     -3769.80061762
  atomic energy  EATOM  =      8828.93359873
  Solvation  Ediel_sol  =         0.00000000
  ---------------------------------------------------
  free energy    TOTEN  =      -568.51874154 eV

  energy without entropy =     -568.51874154  energy(sigma->0) =     -568.51874154


--------------------------------------------------------------------------------------------------------




--------------------------------------- Iteration      1(   5)  ---------------------------------------


     EDDAV:  cpu time      6.9202: real time      6.9254
       DOS:  cpu time      0.0003: real time      0.0002
    CHARGE:  cpu time      0.3085: real time      0.3085
    MIXING:  cpu time      0.0092: real time      0.0093
    --------------------------------------------
      LOOP:  cpu time      7.2382: real time      7.2435

 eigenvalue-minimisations  :   480
 total energy-change (2. order) :-0.4244110E+00  (-0.4237191E+00)
 number of electron     240.0000000 magnetization 
 augmentation part        6.2635584 magnetization 

 Broyden mixing:
  rms(total) = 0.33906E+01    rms(broyden)= 0.33903E+01
  rms(prec ) = 0.39043E+01
  weight for this iteration     100.00

 Free energy of the ion-electron system (eV)
  ---------------------------------------------------
  alpha Z        PSCENC =       107.77265948
  Ewald energy   TEWEN  =     24585.34044588
  -Hartree energ DENC   =    -31075.24411798
  -exchange      EXHF   =         0.00000000
  -V(xc)+E(xc)   XCENC  =       788.64363849
  PAW double counting   =      6511.32278280    -6545.48713133
  entropy T*S    EENTRO =        -0.00000000
  eigenvalues    EBANDS =     -3770.22502863
  atomic energy  EATOM  =      8828.93359873
  Solvation  Ediel_sol  =         0.00000000
  ---------------------------------------------------
  free energy    TOTEN  =      -568.94315255 eV

  energy without entropy =     -568.94315255  energy(sigma->0) =     -568.94315255


--------------------------------------------------------------------------------------------------------




--------------------------------------- Iteration      1(   6)  ---------------------------------------


    POTLOK:  cpu time      0.2362: real time      0.2407
    SETDIJ:  cpu time      0.2253: real time      0.2255
     EDDAV:  cpu time      6.6063: real time      6.6964
       DOS:  cpu time      0.0004: real time      0.0004
    CHARGE:  cpu time      0.3097: real time      0.3102
    MIXING:  cpu time      0.0087: real time      0.0108
    --------------------------------------------
      LOOP:  cpu time      7.3865: real time      7.4841

 eigenvalue-minimisations  :   320
 total energy-change (2. order) : 0.2810865E+02  (-0.2742250E+01)
 number of electron     240.0000000 magnetization 
 augmentation part        5.9796320 magnetization 

 Broyden mixing:
  rms(total) = 0.19494E+01    rms(broyden)= 0.19494E+01
  rms(prec ) = 0.21965E+01
  weight for this iteration     100.00

 eigenvalues of (default mixing * dielectric matrix)
  average eigenvalue GAMMA=   2.1641
  2.1641

 Free energy of the ion-electron system (eV)
  ---------------------------------------------------
  alpha Z        PSCENC =       107.77265948
  Ewald energy   TEWEN  =     24585.34044588
  -Hartree energ DENC   =    -31430.30786550
  -exchange      EXHF   =         0.00000000
  -V(xc)+E(xc)   XCENC  =       802.26305948
  PAW double counting   =     11754.66630870   -11793.23071796
  entropy T*S    EENTRO =        -0.00000000
  eigenvalues    EBANDS =     -3396.27199619
  atomic energy  EATOM  =      8828.93359873
  Solvation  Ediel_sol  =         0.00000000
  ---------------------------------------------------
  free energy    TOTEN  =      -540.83450739 eV

  energy without entropy =     -540.83450739  energy(sigma->0) =     -540.83450739


--------------------------------------------------------------------------------------------------------




--------------------------------------- Iteration      1(   7)  ---------------------------------------


    POTLOK:  cpu time      0.2365: real time      0.2402
    SETDIJ:  cpu time      0.2253: real time      0.2267
     EDDAV:  cpu time      6.1599: real time      6.1604
       DOS:  cpu time      0.0004: real time      0.0004
    CHARGE:  cpu time      0.3064: real time      0.3064
    MIXING:  cpu time      0.0089: real time      0.0088
    --------------------------------------------
      LOOP:  cpu time      6.9375: real time      6.9430

 eigenvalue-minimisations  :   416
 total energy-change (2. order) : 0.9574004E+01  (-0.3577045E+01)
 number of electron     240.0000000 magnetization 
 augmentation part        5.6400411 magnetization 

 Broyden mixing:
  rms(total) = 0.55927E+00    rms(broyden)= 0.55917E+00
  rms(prec ) = 0.60000E+00
  weight for this iteration     100.00

 eigenvalues of (default mixing * dielectric matrix)
  average eigenvalue GAMMA=   2.3613
  2.3613  2.3613

 Free energy of the ion-electron system (eV)
  ---------------------------------------------------
  alpha Z        PSCENC =       107.77265948
  Ewald energy   TEWEN  =     24585.34044588
  -Hartree energ DENC   =    -31862.11261022
  -exchange      EXHF   =         0.00000000
  -V(xc)+E(xc)   XCENC  =       820.01902382
  PAW double counting   =     21274.51724101   -21316.92819369
  entropy T*S    EENTRO =        -0.00000000
  eigenvalues    EBANDS =     -2968.80266880
  atomic energy  EATOM  =      8828.93359873
  Solvation  Ediel_sol  =         0.00000000
  ---------------------------------------------------
  free energy    TOTEN  =      -531.26050381 eV

  energy without entropy =     -531.26050381  energy(sigma->0) =     -531.26050381


--------------------------------------------------------------------------------------------------------




--------------------------------------- Iteration      1(   8)  ---------------------------------------


    POTLOK:  cpu time      0.2362: real time      0.2410
    SETDIJ:  cpu time      0.2250: real time      0.2261
     EDDAV:  cpu time      6.5225: real time      6.5424
       DOS:  cpu time      0.0003: real time      0.0003
    CHARGE:  cpu time      0.3100: real time      0.3100
    MIXING:  cpu time      0.0087: real time      0.0097
    --------------------------------------------
      LOOP:  cpu time      7.3027: real time      7.3295

 eigenvalue-minimisations  :   448
 total energy-change (2. order) : 0.7784852E-01  (-0.2666626E+00)
 number of electron     240.0000000 magnetization 
 augmentation part        5.6448217 magnetization 

 Broyden mixing:
  rms(total) = 0.10561E+00    rms(broyden)= 0.10559E+00
  rms(prec ) = 0.18193E+00
  weight for this iteration     100.00

 eigenvalues of (default mixing * dielectric matrix)
  average eigenvalue GAMMA=   1.8300
  2.4136  1.5382  1.5382

 Free energy of the ion-electron system (eV)
  ---------------------------------------------------
  alpha Z        PSCENC =       107.77265948
  Ewald energy   TEWEN  =     24585.34044588
  -Hartree energ DENC   =    -31883.50481381
  -exchange      EXHF   =         0.00000000
  -V(xc)+E(xc)   XCENC  =       820.21584889
  PAW double counting   =     24134.33529450   -24175.00254623
  entropy T*S    EENTRO =        -0.00000000
  eigenvalues    EBANDS =     -2949.27314271
  atomic energy  EATOM  =      8828.93359873
  Solvation  Ediel_sol  =         0.00000000
  ---------------------------------------------------
  free energy    TOTEN  =      -531.18265529 eV

  energy without entropy =     -531.18265529  energy(sigma->0) =     -531.18265529


--------------------------------------------------------------------------------------------------------




--------------------------------------- Iteration      1(   9)  ---------------------------------------


    POTLOK:  cpu time      0.2363: real time      0.2409
    SETDIJ:  cpu time      0.2241: real time      0.2241
     EDDAV:  cpu time      4.9989: real time      4.9993
       DOS:  cpu time      0.0003: real time      0.0003
    CHARGE:  cpu time      0.3080: real time      0.3080
    MIXING:  cpu time      0.0089: real time      0.0089
    --------------------------------------------
      LOOP:  cpu time      5.7764: real time      5.7814

 eigenvalue-minimisations  :   320
 total energy-change (2. order) : 0.9138979E-01  (-0.3353085E-01)
 number of electron     240.0000000 magnetization 
 augmentation part        5.6199619 magnetization 

 Broyden mixing:
  rms(total) = 0.48471E-01    rms(broyden)= 0.48466E-01
  rms(prec ) = 0.97951E-01
  weight for this iteration     100.00

 eigenvalues of (default mixing * dielectric matrix)
  average eigenvalue GAMMA=   1.8124
  2.3383  2.3383  1.2866  1.2866

 Free energy of the ion-electron system (eV)
  ---------------------------------------------------
  alpha Z        PSCENC =       107.77265948
  Ewald energy   TEWEN  =     24585.34044588
  -Hartree energ DENC   =    -31922.98698768
  -exchange      EXHF   =         0.00000000
  -V(xc)+E(xc)   XCENC  =       821.19337696
  PAW double counting   =     24171.20097737   -24212.22854485
  entropy T*S    EENTRO =        -0.00000000
  eigenvalues    EBANDS =     -2910.31679137
  atomic energy  EATOM  =      8828.93359873
  Solvation  Ediel_sol  =         0.00000000
  ---------------------------------------------------
  free energy    TOTEN  =      -531.09126549 eV

  energy without entropy =     -531.09126549  energy(sigma->0) =     -531.09126549


--------------------------------------------------------------------------------------------------------




--------------------------------------- Iteration      1(  10)  ---------------------------------------


    POTLOK:  cpu time      0.2373: real time      0.2422
    SETDIJ:  cpu time      0.2239: real time      0.2239
     EDDAV:  cpu time      8.3251: real time      8.5226
       DOS:  cpu time      0.0004: real time      0.0004
    CHARGE:  cpu time      0.3080: real time      0.3080
    MIXING:  cpu time      0.0091: real time      0.0091
    --------------------------------------------
      LOOP:  cpu time      9.1038: real time      9.3062

 eigenvalue-minimisations  :   480
 total energy-change (2. order) : 0.1073784E-01  (-0.4736982E-02)
 number of electron     240.0000000 magnetization 
 augmentation part        5.6169526 magnetization 

 Broyden mixing:
  rms(total) = 0.28014E-01    rms(broyden)= 0.28014E-01
  rms(prec ) = 0.59402E-01
  weight for this iteration     100.00

 eigenvalues of (default mixing * dielectric matrix)
  average eigenvalue GAMMA=   1.8284
  2.6461  2.6461  1.4602  1.4602  0.9296

 Free energy of the ion-electron system (eV)
  ---------------------------------------------------
  alpha Z        PSCENC =       107.77265948
  Ewald energy   TEWEN  =     24585.34044588
  -Hartree energ DENC   =    -31953.01861305
  -exchange      EXHF   =         0.00000000
  -V(xc)+E(xc)   XCENC  =       821.31228343
  PAW double counting   =     24105.85495375   -24146.59046203
  entropy T*S    EENTRO =        -0.00000000
  eigenvalues    EBANDS =     -2880.68539384
  atomic energy  EATOM  =      8828.93359873
  Solvation  Ediel_sol  =         0.00000000
  ---------------------------------------------------
  free energy    TOTEN  =      -531.08052765 eV

  energy without entropy =     -531.08052765  energy(sigma->0) =     -531.08052765


--------------------------------------------------------------------------------------------------------




--------------------------------------- Iteration      1(  11)  ---------------------------------------


    POTLOK:  cpu time      0.2380: real time      0.2421
    SETDIJ:  cpu time      0.2224: real time      0.2238
     EDDAV:  cpu time      5.7731: real time      5.7736
       DOS:  cpu time      0.0004: real time      0.0004
    CHARGE:  cpu time      0.3028: real time      0.3028
    MIXING:  cpu time      0.0118: real time      0.0118
    --------------------------------------------
      LOOP:  cpu time      6.5484: real time      6.5544

 eigenvalue-minimisations  :   384
 total energy-change (2. order) :-0.2750728E-02  (-0.2637848E-02)
 number of electron     240.0000000 magnetization 
 augmentation part        5.6112786 magnetization 

 Broyden mixing:
  rms(total) = 0.18293E-01    rms(broyden)= 0.18292E-01
  rms(prec ) = 0.31170E-01
  weight for this iteration     100.00

 eigenvalues of (default mixing * dielectric matrix)
  average eigenvalue GAMMA=   1.9553
  3.4303  2.2689  2.2689  1.6213  1.1444  0.9977

 Free energy of the ion-electron system (eV)
  ---------------------------------------------------
  alpha Z        PSCENC =       107.77265948
  Ewald energy   TEWEN  =     24585.34044588
  -Hartree energ DENC   =    -31987.07552083
  -exchange      EXHF   =         0.00000000
  -V(xc)+E(xc)   XCENC  =       821.78957176
  PAW double counting   =     24074.37325174   -24115.10051965
  entropy T*S    EENTRO =        -0.00000000
  eigenvalues    EBANDS =     -2847.11676547
  atomic energy  EATOM  =      8828.93359873
  Solvation  Ediel_sol  =         0.00000000
  ---------------------------------------------------
  free energy    TOTEN  =      -531.08327838 eV

  energy without entropy =     -531.08327838  energy(sigma->0) =     -531.08327838


--------------------------------------------------------------------------------------------------------




--------------------------------------- Iteration      1(  12)  ---------------------------------------


    POTLOK:  cpu time      0.2372: real time      0.2421
    SETDIJ:  cpu time      0.2235: real time      0.2237
     EDDAV:  cpu time      5.3887: real time      5.3891
       DOS:  cpu time      0.0003: real time      0.0003
    CHARGE:  cpu time      0.3015: real time      0.3015
    MIXING:  cpu time      0.0120: real time      0.0120
    --------------------------------------------
      LOOP:  cpu time      6.1631: real time      6.1685

 eigenvalue-minimisations  :   352
 total energy-change (2. order) :-0.9172631E-02  (-0.1003526E-02)
 number of electron     240.0000000 magnetization 
 augmentation part        5.6067244 magnetization 

 Broyden mixing:
  rms(total) = 0.84145E-02    rms(broyden)= 0.84127E-02
  rms(prec ) = 0.15648E-01
  weight for this iteration     100.00

 eigenvalues of (default mixing * dielectric matrix)
  average eigenvalue GAMMA=   2.2350
  5.3538  2.6578  2.2851  1.6662  1.6662  1.0080  1.0080

 Free energy of the ion-electron system (eV)
  ---------------------------------------------------
  alpha Z        PSCENC =       107.77265948
  Ewald energy   TEWEN  =     24585.34044588
  -Hartree energ DENC   =    -32005.63325443
  -exchange      EXHF   =         0.00000000
  -V(xc)+E(xc)   XCENC  =       822.04348373
  PAW double counting   =     24048.61664372   -24089.41612417
  entropy T*S    EENTRO =        -0.00000000
  eigenvalues    EBANDS =     -2828.74990394
  atomic energy  EATOM  =      8828.93359873
  Solvation  Ediel_sol  =         0.00000000
  ---------------------------------------------------
  free energy    TOTEN  =      -531.09245101 eV

  energy without entropy =     -531.09245101  energy(sigma->0) =     -531.09245101


--------------------------------------------------------------------------------------------------------




--------------------------------------- Iteration      1(  13)  ---------------------------------------


    POTLOK:  cpu time      0.2367: real time      0.2412
    SETDIJ:  cpu time      0.2238: real time      0.2238
     EDDAV:  cpu time      5.3994: real time      5.4001
       DOS:  cpu time      0.0003: real time      0.0002
    CHARGE:  cpu time      0.2997: real time      0.2997
    MIXING:  cpu time      0.0139: real time      0.0139
    --------------------------------------------
      LOOP:  cpu time      6.1738: real time      6.1790

 eigenvalue-minimisations  :   352
 total energy-change (2. order) :-0.7482626E-02  (-0.2058330E-03)
 number of electron     240.0000000 magnetization 
 augmentation part        5.6068978 magnetization 

 Broyden mixing:
  rms(total) = 0.57612E-02    rms(broyden)= 0.57611E-02
  rms(prec ) = 0.88307E-02
  weight for this iteration     100.00

 eigenvalues of (default mixing * dielectric matrix)
  average eigenvalue GAMMA=   2.3343
  5.8456  3.2746  2.6474  1.9757  1.4515  1.4515  1.0308  0.9976

 Free energy of the ion-electron system (eV)
  ---------------------------------------------------
  alpha Z        PSCENC =       107.77265948
  Ewald energy   TEWEN  =     24585.34044588
  -Hartree energ DENC   =    -32011.21426953
  -exchange      EXHF   =         0.00000000
  -V(xc)+E(xc)   XCENC  =       821.97635345
  PAW double counting   =     24019.38925984   -24060.18711870
  entropy T*S    EENTRO =        -0.00000000
  eigenvalues    EBANDS =     -2823.11086278
  atomic energy  EATOM  =      8828.93359873
  Solvation  Ediel_sol  =         0.00000000
  ---------------------------------------------------
  free energy    TOTEN  =      -531.09993363 eV

  energy without entropy =     -531.09993363  energy(sigma->0) =     -531.09993363


--------------------------------------------------------------------------------------------------------




--------------------------------------- Iteration      1(  14)  ---------------------------------------


    POTLOK:  cpu time      0.2374: real time      0.2426
    SETDIJ:  cpu time      0.2232: real time      0.2233
     EDDAV:  cpu time      6.1781: real time      6.1979
       DOS:  cpu time      0.0003: real time      0.0003
    CHARGE:  cpu time      0.3057: real time      0.3137
    MIXING:  cpu time      0.0157: real time      0.0161
    --------------------------------------------
      LOOP:  cpu time      6.9605: real time      6.9938

 eigenvalue-minimisations  :   416
 total energy-change (2. order) :-0.8480730E-02  (-0.1317002E-03)
 number of electron     240.0000000 magnetization 
 augmentation part        5.6075498 magnetization 

 Broyden mixing:
  rms(total) = 0.51170E-02    rms(broyden)= 0.51169E-02
  rms(prec ) = 0.62781E-02
  weight for this iteration     100.00

 eigenvalues of (default mixing * dielectric matrix)
  average eigenvalue GAMMA=   2.3637
  6.6397  3.6406  2.4009  2.2636  1.6778  1.6778  1.0323  1.0323  0.9079

 Free energy of the ion-electron system (eV)
  ---------------------------------------------------
  alpha Z        PSCENC =       107.77265948
  Ewald energy   TEWEN  =     24585.34044588
  -Hartree energ DENC   =    -32010.83707523
  -exchange      EXHF   =         0.00000000
  -V(xc)+E(xc)   XCENC  =       821.91724639
  PAW double counting   =     24075.57612043   -24116.35893197
  entropy T*S    EENTRO =        -0.00000000
  eigenvalues    EBANDS =     -2823.45247807
  atomic energy  EATOM  =      8828.93359873
  Solvation  Ediel_sol  =         0.00000000
  ---------------------------------------------------
  free energy    TOTEN  =      -531.10841436 eV

  energy without entropy =     -531.10841436  energy(sigma->0) =     -531.10841436


--------------------------------------------------------------------------------------------------------




--------------------------------------- Iteration      1(  15)  ---------------------------------------


    POTLOK:  cpu time      0.2264: real time      0.2516
    SETDIJ:  cpu time      0.2215: real time      0.2309
     EDDAV:  cpu time      5.7129: real time      5.8294
       DOS:  cpu time      0.0003: real time      0.0003
    CHARGE:  cpu time      0.3032: real time      0.3032
    MIXING:  cpu time      0.0118: real time      0.0118
    --------------------------------------------
      LOOP:  cpu time      6.4760: real time      6.6272

 eigenvalue-minimisations  :   384
 total energy-change (2. order) :-0.3065068E-02  (-0.3943552E-04)
 number of electron     240.0000000 magnetization 
 augmentation part        5.6073457 magnetization 

 Broyden mixing:
  rms(total) = 0.10247E-02    rms(broyden)= 0.10247E-02
  rms(prec ) = 0.23657E-02
  weight for this iteration     100.00

 eigenvalues of (default mixing * dielectric matrix)
  average eigenvalue GAMMA=   2.4624
  7.1734  4.3112  2.7729  2.5016  1.8872  1.4609  1.4609  1.1023  0.9768  0.9768

 Free energy of the ion-electron system (eV)
  ---------------------------------------------------
  alpha Z        PSCENC =       107.77265948
  Ewald energy   TEWEN  =     24585.34044588
  -Hartree energ DENC   =    -32011.54614084
  -exchange      EXHF   =         0.00000000
  -V(xc)+E(xc)   XCENC  =       821.91795183
  PAW double counting   =     24045.84802198   -24086.63604477
  entropy T*S    EENTRO =        -0.00000000
  eigenvalues    EBANDS =     -2822.74197172
  atomic energy  EATOM  =      8828.93359873
  Solvation  Ediel_sol  =         0.00000000
  ---------------------------------------------------
  free energy    TOTEN  =      -531.11147943 eV

  energy without entropy =     -531.11147943  energy(sigma->0) =     -531.11147943


--------------------------------------------------------------------------------------------------------




--------------------------------------- Iteration      1(  16)  ---------------------------------------


    POTLOK:  cpu time      0.2359: real time      0.2408
    SETDIJ:  cpu time      0.2241: real time      0.2242
     EDDAV:  cpu time      7.3216: real time      7.3257
       DOS:  cpu time      0.0002: real time      0.0002
    CHARGE:  cpu time      0.4633: real time      0.4634
    MIXING:  cpu time      0.0588: real time      0.0588
    --------------------------------------------
      LOOP:  cpu time      8.3039: real time      8.3130

 eigenvalue-minimisations  :   448
 total energy-change (2. order) :-0.1899951E-02  (-0.3145005E-04)
 number of electron     240.0000000 magnetization 
 augmentation part        5.6070256 magnetization 

 Broyden mixing:
  rms(total) = 0.11909E-02    rms(broyden)= 0.11909E-02
  rms(prec ) = 0.17154E-02
  weight for this iteration     100.00

 eigenvalues of (default mixing * dielectric matrix)
  average eigenvalue GAMMA=   2.4528
  7.2586  4.5928  2.7931  2.6659  2.1649  1.7858  1.6286  0.9584  1.0276  1.0524
  1.0524

 Free energy of the ion-electron system (eV)
  ---------------------------------------------------
  alpha Z        PSCENC =       107.77265948
  Ewald energy   TEWEN  =     24585.34044588
  -Hartree energ DENC   =    -32012.58051035
  -exchange      EXHF   =         0.00000000
  -V(xc)+E(xc)   XCENC  =       821.93481173
  PAW double counting   =     24043.75996975   -24084.54731290
  entropy T*S    EENTRO =        -0.00000000
  eigenvalues    EBANDS =     -2821.72704170
  atomic energy  EATOM  =      8828.93359873
  Solvation  Ediel_sol  =         0.00000000
  ---------------------------------------------------
  free energy    TOTEN  =      -531.11337938 eV

  energy without entropy =     -531.11337938  energy(sigma->0) =     -531.11337938


--------------------------------------------------------------------------------------------------------




--------------------------------------- Iteration      1(  17)  ---------------------------------------


    POTLOK:  cpu time      0.2729: real time      0.5157
    SETDIJ:  cpu time      0.2355: real time      0.2355
     EDDAV:  cpu time      6.2185: real time      6.2208
       DOS:  cpu time      0.0004: real time      0.0004
    CHARGE:  cpu time      0.3012: real time      0.3012
    MIXING:  cpu time      0.0177: real time      0.0177
    --------------------------------------------
      LOOP:  cpu time      7.0461: real time      7.2913

 eigenvalue-minimisations  :   384
 total energy-change (2. order) :-0.3499738E-03  (-0.4880219E-05)
 number of electron     240.0000000 magnetization 
 augmentation part        5.6070252 magnetization 

 Broyden mixing:
  rms(total) = 0.61367E-03    rms(broyden)= 0.61361E-03
  rms(prec ) = 0.82995E-03
  weight for this iteration     100.00

 eigenvalues of (default mixing * dielectric matrix)
  average eigenvalue GAMMA=   2.5540
  7.7242  5.7694  3.4452  2.5459  2.3285  1.8502  1.6553  1.1908  1.1908  0.9347
  1.0068  1.0068

 Free energy of the ion-electron system (eV)
  ---------------------------------------------------
  alpha Z        PSCENC =       107.77265948
  Ewald energy   TEWEN  =     24585.34044588
  -Hartree energ DENC   =    -32012.47525546
  -exchange      EXHF   =         0.00000000
  -V(xc)+E(xc)   XCENC  =       821.93153752
  PAW double counting   =     24044.39484850   -24085.18328297
  entropy T*S    EENTRO =        -0.00000000
  eigenvalues    EBANDS =     -2821.82828103
  atomic energy  EATOM  =      8828.93359873
  Solvation  Ediel_sol  =         0.00000000
  ---------------------------------------------------
  free energy    TOTEN  =      -531.11372936 eV

  energy without entropy =     -531.11372936  energy(sigma->0) =     -531.11372936


--------------------------------------------------------------------------------------------------------




--------------------------------------- Iteration      1(  18)  ---------------------------------------


    POTLOK:  cpu time      0.2367: real time      0.2426
    SETDIJ:  cpu time      0.2240: real time      0.2250
     EDDAV:  cpu time      6.5321: real time      6.5356
       DOS:  cpu time      0.0004: real time      0.0004
    CHARGE:  cpu time      0.3007: real time      0.3008
    MIXING:  cpu time      0.0175: real time      0.0175
    --------------------------------------------
      LOOP:  cpu time      7.3115: real time      7.3220

 eigenvalue-minimisations  :   448
 total energy-change (2. order) :-0.1182882E-03  (-0.7954402E-06)
 number of electron     240.0000000 magnetization 
 augmentation part        5.6070695 magnetization 

 Broyden mixing:
  rms(total) = 0.22189E-03    rms(broyden)= 0.22176E-03
  rms(prec ) = 0.39791E-03
  weight for this iteration     100.00

 eigenvalues of (default mixing * dielectric matrix)
  average eigenvalue GAMMA=   2.5619
  7.6533  6.4091  3.5890  2.6467  2.6013  1.9020  1.5748  1.5748  0.9702  0.9702
  1.0952  1.1591  1.1591

 Free energy of the ion-electron system (eV)
  ---------------------------------------------------
  alpha Z        PSCENC =       107.77265948
  Ewald energy   TEWEN  =     24585.34044588
  -Hartree energ DENC   =    -32012.44789634
  -exchange      EXHF   =         0.00000000
  -V(xc)+E(xc)   XCENC  =       821.92943712
  PAW double counting   =     24046.07458290   -24086.86189085
  entropy T*S    EENTRO =        -0.00000000
  eigenvalues    EBANDS =     -2821.85478455
  atomic energy  EATOM  =      8828.93359873
  Solvation  Ediel_sol  =         0.00000000
  ---------------------------------------------------
  free energy    TOTEN  =      -531.11384764 eV

  energy without entropy =     -531.11384764  energy(sigma->0) =     -531.11384764


--------------------------------------------------------------------------------------------------------




--------------------------------------- Iteration      1(  19)  ---------------------------------------


    POTLOK:  cpu time      0.2361: real time      0.2408
    SETDIJ:  cpu time      0.2242: real time      0.2243
     EDDAV:  cpu time      6.1407: real time      6.1433
       DOS:  cpu time      0.0003: real time      0.0003
    CHARGE:  cpu time      0.3039: real time      0.3040
    MIXING:  cpu time      0.0190: real time      0.0189
    --------------------------------------------
      LOOP:  cpu time      6.9241: real time      6.9316

 eigenvalue-minimisations  :   416
 total energy-change (2. order) :-0.6929257E-04  (-0.1864277E-06)
 number of electron     240.0000000 magnetization 
 augmentation part        5.6070992 magnetization 

 Broyden mixing:
  rms(total) = 0.23181E-03    rms(broyden)= 0.23169E-03
  rms(prec ) = 0.31011E-03
  weight for this iteration     100.00

 eigenvalues of (default mixing * dielectric matrix)
  average eigenvalue GAMMA=   2.5723
  8.1790  6.6007  3.8230  2.9896  2.4872  2.1394  1.8138  1.6502  1.1868  1.1868
  0.9628  0.9628  1.0148  1.0148

 Free energy of the ion-electron system (eV)
  ---------------------------------------------------
  alpha Z        PSCENC =       107.77265948
  Ewald energy   TEWEN  =     24585.34044588
  -Hartree energ DENC   =    -32012.45573768
  -exchange      EXHF   =         0.00000000
  -V(xc)+E(xc)   XCENC  =       821.92767940
  PAW double counting   =     24047.81544906   -24088.60234245
  entropy T*S    EENTRO =        -0.00000000
  eigenvalues    EBANDS =     -2821.84566936
  atomic energy  EATOM  =      8828.93359873
  Solvation  Ediel_sol  =         0.00000000
  ---------------------------------------------------
  free energy    TOTEN  =      -531.11391694 eV

  energy without entropy =     -531.11391694  energy(sigma->0) =     -531.11391694


--------------------------------------------------------------------------------------------------------




--------------------------------------- Iteration      1(  20)  ---------------------------------------


    POTLOK:  cpu time      0.2376: real time      0.2431
    SETDIJ:  cpu time      0.2241: real time      0.2252
     EDDAV:  cpu time      5.7698: real time      5.7732
       DOS:  cpu time      0.0004: real time      0.0004
    CHARGE:  cpu time      0.3001: real time      0.3002
    MIXING:  cpu time      0.0181: real time      0.0181
    --------------------------------------------
      LOOP:  cpu time      6.5501: real time      6.5603

 eigenvalue-minimisations  :   384
 total energy-change (2. order) :-0.4555890E-04  (-0.1014176E-06)
 number of electron     240.0000000 magnetization 
 augmentation part        5.6071035 magnetization 

 Broyden mixing:
  rms(total) = 0.11368E-03    rms(broyden)= 0.11345E-03
  rms(prec ) = 0.16679E-03
  weight for this iteration     100.00

 eigenvalues of (default mixing * dielectric matrix)
  average eigenvalue GAMMA=   2.5884
  8.2468  6.7349  4.1052  3.2417  2.6167  2.4361  1.9321  1.5769  1.5769  1.1628
  1.1628  0.9777  0.9777  1.0108  1.0668

 Free energy of the ion-electron system (eV)
  ---------------------------------------------------
  alpha Z        PSCENC =       107.77265948
  Ewald energy   TEWEN  =     24585.34044588
  -Hartree energ DENC   =    -32012.45125584
  -exchange      EXHF   =         0.00000000
  -V(xc)+E(xc)   XCENC  =       821.92728099
  PAW double counting   =     24047.21350218   -24088.00057564
  entropy T*S    EENTRO =        -0.00000000
  eigenvalues    EBANDS =     -2821.84961827
  atomic energy  EATOM  =      8828.93359873
  Solvation  Ediel_sol  =         0.00000000
  ---------------------------------------------------
  free energy    TOTEN  =      -531.11396250 eV

  energy without entropy =     -531.11396250  energy(sigma->0) =     -531.11396250


--------------------------------------------------------------------------------------------------------




--------------------------------------- Iteration      1(  21)  ---------------------------------------


    POTLOK:  cpu time      0.2370: real time      0.2419
    SETDIJ:  cpu time      0.2238: real time      0.2239
     EDDAV:  cpu time      6.1430: real time      6.1458
       DOS:  cpu time      0.0003: real time      0.0003
    CHARGE:  cpu time      0.3054: real time      0.3055
    MIXING:  cpu time      0.0092: real time      0.0092
    --------------------------------------------
      LOOP:  cpu time      6.9187: real time      6.9265

 eigenvalue-minimisations  :   416
 total energy-change (2. order) :-0.1778329E-04  (-0.1061608E-06)
 number of electron     240.0000000 magnetization 
 augmentation part        5.6070838 magnetization 

 Broyden mixing:
  rms(total) = 0.49191E-04    rms(broyden)= 0.48638E-04
  rms(prec ) = 0.63957E-04
  weight for this iteration     100.00

 eigenvalues of (default mixing * dielectric matrix)
  average eigenvalue GAMMA=   2.6288
  8.8227  6.8171  4.9335  3.3956  2.5993  2.4979  2.0149  2.0149  1.5577  1.1875
  1.1875  1.0844  0.9559  0.9559  1.0178  1.0178

 Free energy of the ion-electron system (eV)
  ---------------------------------------------------
  alpha Z        PSCENC =       107.77265948
  Ewald energy   TEWEN  =     24585.34044588
  -Hartree energ DENC   =    -32012.51797639
  -exchange      EXHF   =         0.00000000
  -V(xc)+E(xc)   XCENC  =       821.92841683
  PAW double counting   =     24046.93708110   -24087.72419894
  entropy T*S    EENTRO =        -0.00000000
  eigenvalues    EBANDS =     -2821.78400697
  atomic energy  EATOM  =      8828.93359873
  Solvation  Ediel_sol  =         0.00000000
  ---------------------------------------------------
  free energy    TOTEN  =      -531.11398028 eV

  energy without entropy =     -531.11398028  energy(sigma->0) =     -531.11398028


--------------------------------------------------------------------------------------------------------




--------------------------------------- Iteration      1(  22)  ---------------------------------------


    POTLOK:  cpu time      0.2360: real time      0.2408
    SETDIJ:  cpu time      0.2233: real time      0.2233
     EDDAV:  cpu time      5.3859: real time      5.3888
       DOS:  cpu time      0.0003: real time      0.0003
    CHARGE:  cpu time      0.3063: real time      0.3065
    MIXING:  cpu time      0.0096: real time      0.0096
    --------------------------------------------
      LOOP:  cpu time      6.1614: real time      6.1694

 eigenvalue-minimisations  :   352
 total energy-change (2. order) :-0.4850714E-05  (-0.2792780E-07)
 number of electron     240.0000000 magnetization 
 augmentation part        5.6070831 magnetization 

 Broyden mixing:
  rms(total) = 0.21898E-04    rms(broyden)= 0.20629E-04
  rms(prec ) = 0.27731E-04
  weight for this iteration     100.00

 eigenvalues of (default mixing * dielectric matrix)
  average eigenvalue GAMMA=   2.6575
  9.0786  7.0567  5.4248  3.6021  2.7889  2.5530  2.1639  1.8177  1.8177  1.4549
  1.1644  1.1644  1.1664  1.0039  0.9895  0.9895  0.9403

 Free energy of the ion-electron system (eV)
  ---------------------------------------------------
  alpha Z        PSCENC =       107.77265948
  Ewald energy   TEWEN  =     24585.34044588
  -Hartree energ DENC   =    -32012.51269690
  -exchange      EXHF   =         0.00000000
  -V(xc)+E(xc)   XCENC  =       821.92837819
  PAW double counting   =     24046.85708656   -24087.64424203
  entropy T*S    EENTRO =        -0.00000000
  eigenvalues    EBANDS =     -2821.78921503
  atomic energy  EATOM  =      8828.93359873
  Solvation  Ediel_sol  =         0.00000000
  ---------------------------------------------------
  free energy    TOTEN  =      -531.11398513 eV

  energy without entropy =     -531.11398513  energy(sigma->0) =     -531.11398513


--------------------------------------------------------------------------------------------------------




--------------------------------------- Iteration      1(  23)  ---------------------------------------


    POTLOK:  cpu time      0.2371: real time      0.2420
    SETDIJ:  cpu time      0.2230: real time      0.2242
     EDDAV:  cpu time      7.1722: real time      7.2112
       DOS:  cpu time      0.0004: real time      0.0004
    CHARGE:  cpu time      0.3072: real time      0.3072
    MIXING:  cpu time      0.0100: real time      0.0100
    --------------------------------------------
      LOOP:  cpu time      7.9500: real time      7.9950

 eigenvalue-minimisations  :   384
 total energy-change (2. order) :-0.1158434E-05  (-0.3474923E-08)
 number of electron     240.0000000 magnetization 
 augmentation part        5.6070829 magnetization 

 Broyden mixing:
  rms(total) = 0.15358E-04    rms(broyden)= 0.13488E-04
  rms(prec ) = 0.16787E-04
  weight for this iteration     100.00
  WARNING: grid for Broyden might be to small

 eigenvalues of (default mixing * dielectric matrix)
  average eigenvalue GAMMA=   2.6397
  9.2948  7.2172  5.7284  3.6387  2.8910  2.4553  2.4553  1.8214  1.8214  1.4570
  1.4570  1.1423  1.1423  1.0449  1.0449  0.9389  0.9815  0.9815

 Free energy of the ion-electron system (eV)
  ---------------------------------------------------
  alpha Z        PSCENC =       107.77265948
  Ewald energy   TEWEN  =     24585.34044588
  -Hartree energ DENC   =    -32012.51405625
  -exchange      EXHF   =         0.00000000
  -V(xc)+E(xc)   XCENC  =       821.92841036
  PAW double counting   =     24046.81841974   -24087.60557472
  entropy T*S    EENTRO =        -0.00000000
  eigenvalues    EBANDS =     -2821.78788950
  atomic energy  EATOM  =      8828.93359873
  Solvation  Ediel_sol  =         0.00000000
  ---------------------------------------------------
  free energy    TOTEN  =      -531.11398629 eV

  energy without entropy =     -531.11398629  energy(sigma->0) =     -531.11398629


--------------------------------------------------------------------------------------------------------




--------------------------------------- Iteration      1(  24)  ---------------------------------------


    POTLOK:  cpu time      0.2374: real time      0.2424
    SETDIJ:  cpu time      0.2245: real time      0.2245
     EDDAV:  cpu time      5.0104: real time      5.0106
       DOS:  cpu time      0.0003: real time      0.0003
    CHARGE:  cpu time      0.3075: real time      0.3075
    MIXING:  cpu time      0.0095: real time      0.0095
    --------------------------------------------
      LOOP:  cpu time      5.7894: real time      5.7947

 eigenvalue-minimisations  :   320
 total energy-change (2. order) :-0.3220121E-06  (-0.1369074E-09)
 number of electron     240.0000000 magnetization 
 augmentation part        5.6070834 magnetization 

 Broyden mixing:
  rms(total) = 0.84631E-05    rms(broyden)= 0.42053E-05
  rms(prec ) = 0.65958E-05
  weight for this iteration     100.00
  WARNING: grid for Broyden might be to small

 eigenvalues of (default mixing * dielectric matrix)
  average eigenvalue GAMMA=   2.6146
  9.3654  7.3359  5.7614  3.7968  3.0029  2.5770  2.4554  1.8755  1.8755  1.5106
  1.4091  1.4091  1.1454  1.1454  1.1023  1.0008  1.0008  0.9444  0.9639

 Free energy of the ion-electron system (eV)
  ---------------------------------------------------
  alpha Z        PSCENC =       107.77265948
  Ewald energy   TEWEN  =     24585.34044588
  -Hartree energ DENC   =    -32012.51438019
  -exchange      EXHF   =         0.00000000
  -V(xc)+E(xc)   XCENC  =       821.92838607
  PAW double counting   =     24046.85649906   -24087.64364135
  entropy T*S    EENTRO =        -0.00000000
  eigenvalues    EBANDS =     -2821.78755429
  atomic energy  EATOM  =      8828.93359873
  Solvation  Ediel_sol  =         0.00000000
  ---------------------------------------------------
  free energy    TOTEN  =      -531.11398661 eV

  energy without entropy =     -531.11398661  energy(sigma->0) =     -531.11398661


--------------------------------------------------------------------------------------------------------




--------------------------------------- Iteration      1(  25)  ---------------------------------------


    POTLOK:  cpu time      0.2365: real time      0.2413
    SETDIJ:  cpu time      0.2244: real time      0.2244
     EDDAV:  cpu time      4.6237: real time      4.6239
       DOS:  cpu time      0.0003: real time      0.0002
    CHARGE:  cpu time      0.3072: real time      0.3072
    MIXING:  cpu time      0.0098: real time      0.0098
    --------------------------------------------
      LOOP:  cpu time      5.4018: real time      5.4067

 eigenvalue-minimisations  :   288
 total energy-change (2. order) :-0.2391280E-06  ( 0.4376055E-10)
 number of electron     240.0000000 magnetization 
 augmentation part        5.6070839 magnetization 

 Broyden mixing:
  rms(total) = 0.76726E-05    rms(broyden)= 0.22206E-05
  rms(prec ) = 0.33983E-05
  weight for this iteration     100.00
  WARNING: grid for Broyden might be to small

 eigenvalues of (default mixing * dielectric matrix)
  average eigenvalue GAMMA=   2.5997
  9.3785  7.3719  5.8279  3.8950  3.1319  2.7255  2.5507  2.1312  1.8911  1.6389
  1.5351  1.5351  1.1385  1.1385  1.0829  1.0829  0.9440  0.9803  0.9803  1.0331

 Free energy of the ion-electron system (eV)
[...]
 ion   44
    1     0.01209    -0.09177     0.05804
    2    -0.10454    -0.00371     0.11745
    3     0.07067     0.12224    -0.02357
 ion   45
    1    -0.05875    -0.09408    -0.06692
    2    -0.13421    -0.04277    -0.05628
    3    -0.06797    -0.04907     0.07332
 ion   46
    1    -0.04504     0.10008    -0.05890
    2     0.13790    -0.06291     0.03827
    3    -0.04662     0.04277     0.09365
 ion   47
    1     0.07118    -0.00325     0.01525
    2     0.01011    -0.01303     0.16016
    3     0.01097     0.14956    -0.06417
 ion   48
    1    -0.16079     0.05250     0.00713
    2     0.07039     0.10445    -0.00662
    3     0.00619     0.02097     0.09028
 ion   49
    1     0.06111     0.06657    -0.00480
    2     0.03888    -0.17191     0.08520
    3    -0.01223     0.06272     0.09432
 ion   50
    1    -0.13498    -0.04986     0.07970
    2    -0.04275     0.07013     0.01274
    3     0.07832     0.03128     0.07328
 ion   51
    1    -0.07241     0.06668    -0.11328
    2     0.05350     0.11817     0.05483
    3    -0.13956     0.01477    -0.02065
 ion   52
    1    -0.02070    -0.13698     0.02731
    2    -0.14862    -0.06970    -0.01712
    3     0.01571    -0.01493     0.08719
 ion   53
    1     0.08387    -0.03061     0.04683
    2    -0.01818    -0.07168     0.02895
    3     0.06192     0.12556    -0.02091
 ion   54
    1     0.05537     0.10142    -0.03068
    2     0.11965    -0.08669     0.07904
    3    -0.03522     0.06376     0.01914
 ion   55
    1    -0.16447    -0.04226     0.00065
    2    -0.06114     0.11896     0.01116
    3     0.00518    -0.01981     0.08667
 ion   56
    1     0.01926     0.08667     0.06394
    2     0.10727    -0.00611    -0.11671
    3     0.07570    -0.12286    -0.04542
 ion   57
    1     0.04020     0.01094     0.11021
    2     0.03366     0.04986    -0.08224
    3     0.11834    -0.07895    -0.09204
 ion   58
    1     0.08618     0.02025     0.04371
    2     0.00174    -0.03992    -0.03393
    3     0.06306    -0.12902    -0.04585
 ion   59
    1     0.08553     0.03010     0.02126
    2     0.01997     0.05206    -0.08355
    3     0.02808    -0.05231    -0.15029
 ion   60
    1     0.07082    -0.00029     0.01027
    2    -0.00840     0.00071    -0.15505
    3     0.00383    -0.14227    -0.09155
 
    CHARGE:  cpu time      0.3045: real time      0.3045
    FORLOC:  cpu time      0.0601: real time      0.0601
    FORNL :  cpu time      1.9385: real time      1.9384
    STRESS:  cpu time      9.0304: real time      9.0302
    FORCOR:  cpu time      0.2697: real time      0.2697
    FORHAR:  cpu time      0.1049: real time      0.1048
    MIXING:  cpu time      0.0109: real time      0.0109
    OFIELD:  cpu time      0.0001: real time      0.0001

  FORCE on cell =-STRESS in cart. coord.  units (eV):
  Direction    XX          YY          ZZ          XY          YZ          ZX
  --------------------------------------------------------------------------------------
  Alpha Z   107.77266   107.77266   107.77266
  Ewald    8199.38742  8198.24725  8187.67005    -2.82833     1.18645     1.18428
  Hartree 10674.63164 10673.28531 10664.59580    -1.90478     0.85688     1.11276
  E(xc)    -897.87555  -897.87379  -897.88063    -0.00414     0.00178    -0.00055
  Local  -21622.46412-21619.94225-21600.75068     4.65754    -2.03357    -2.28254
  n-local  -198.63016  -198.62350  -198.63704    -0.00853     0.00491    -0.00210
  augment   -21.90619   -21.90640   -21.90613     0.00045     0.00001    -0.00013
  Kinetic  3758.62919  3758.56845  3758.78958     0.14503    -0.07695     0.01822
  Fock        0.00000     0.00000     0.00000     0.00000     0.00000     0.00000
  -------------------------------------------------------------------------------------
  Total      -0.45512    -0.47228    -0.34638     0.05724    -0.06049     0.02994
  in kB      -0.26574    -0.27575    -0.20224     0.03342    -0.03532     0.01748
  external pressure =       -0.25 kB  Pullay stress =        0.00 kB


 VOLUME and BASIS-vectors are now :
 -----------------------------------------------------------------------------
  energy-cutoff  :      520.00
  volume of cell :     2744.00
      direct lattice vectors                 reciprocal lattice vectors
    14.000000000  0.000000000  0.000000000     0.071428571  0.000000000  0.000000000
     0.000000000 14.000000000  0.000000000     0.000000000  0.071428571  0.000000000
     0.000000000  0.000000000 14.000000000     0.000000000  0.000000000  0.071428571

  length of vectors
    14.000000000 14.000000000 14.000000000     0.071428571  0.071428571  0.071428571


 FORCES acting on ions
    electron-ion (+dipol)            ewald-force                    non-local-force                 convergence-correction
 -----------------------------------------------------------------------------------------------
   -.244E+03 0.153E+03 0.282E+03   0.245E+03 -.153E+03 -.283E+03   -.576E+00 0.243E+00 0.508E+00   0.000E+00 0.000E+00 0.000E+00
   -.164E+03 0.289E+03 0.229E+03   0.164E+03 -.290E+03 -.229E+03   -.354E+00 0.640E+00 0.351E+00   0.000E+00 0.000E+00 0.000E+00
   -.133E+03 0.582E+02 0.362E+03   0.134E+03 -.582E+02 -.363E+03   -.261E+00 -.681E-02 0.767E+00   0.000E+00 0.000E+00 0.000E+00
   0.307E+01 0.284E+03 0.282E+03   -.317E+01 -.285E+03 -.283E+03   0.995E-01 0.623E+00 0.506E+00   0.000E+00 0.000E+00 0.000E+00
   0.230E+02 0.144E+03 0.362E+03   -.231E+02 -.144E+03 -.363E+03   0.154E+00 0.225E+00 0.764E+00   0.000E+00 0.000E+00 0.000E+00
   -.330E+03 0.865E+02 0.205E+03   0.330E+03 -.867E+02 -.206E+03   -.616E+00 0.229E+00 0.492E+00   0.000E+00 0.000E+00 0.000E+00
   -.192E+03 0.333E+03 0.996E+02   0.193E+03 -.334E+03 -.999E+02   -.359E+00 0.643E+00 0.310E+00   0.000E+00 0.000E+00 0.000E+00
   -.136E+03 -.899E+02 0.357E+03   0.137E+03 0.900E+02 -.358E+03   -.267E+00 -.506E-01 0.760E+00   0.000E+00 0.000E+00 0.000E+00
   0.113E+03 0.324E+03 0.204E+03   -.113E+03 -.325E+03 -.205E+03   0.133E+00 0.643E+00 0.485E+00   0.000E+00 0.000E+00 0.000E+00
   0.149E+03 0.683E+02 0.357E+03   -.149E+03 -.685E+02 -.357E+03   0.188E+00 0.198E+00 0.758E+00   0.000E+00 0.000E+00 0.000E+00
   -.358E+03 0.150E+03 0.448E+02   0.359E+03 -.150E+03 -.448E+02   -.694E+00 0.397E+00 0.538E-01   0.000E+00 0.000E+00 0.000E+00
   -.302E+03 0.263E+03 -.442E+01   0.303E+03 -.263E+03 0.439E+01   -.690E+00 0.438E+00 0.301E-01   0.000E+00 0.000E+00 0.000E+00
   -.333E+03 -.921E+02 0.197E+03   0.333E+03 0.924E+02 -.197E+03   -.626E+00 -.249E+00 0.457E+00   0.000E+00 0.000E+00 0.000E+00
   -.250E+03 -.170E+03 0.268E+03   0.251E+03 0.170E+03 -.269E+03   -.587E+00 -.263E+00 0.473E+00   0.000E+00 0.000E+00 0.000E+00
   -.621E+02 0.379E+03 -.470E+01   0.621E+02 -.380E+03 0.466E+01   -.360E-02 0.805E+00 0.329E-01   0.000E+00 0.000E+00 0.000E+00
   0.783E+02 0.375E+03 0.444E+02   -.784E+02 -.376E+03 -.444E+02   0.388E-01 0.814E+00 0.478E-01   0.000E+00 0.000E+00 0.000E+00
   0.163E+02 -.180E+03 0.350E+03   -.164E+02 0.180E+03 -.351E+03   0.140E+00 -.301E+00 0.738E+00   0.000E+00 0.000E+00 0.000E+00
   0.145E+03 -.110E+03 0.350E+03   -.145E+03 0.111E+03 -.351E+03   0.180E+00 -.277E+00 0.741E+00   0.000E+00 0.000E+00 0.000E+00
   0.258E+03 0.243E+03 0.196E+03   -.259E+03 -.243E+03 -.196E+03   0.535E+00 0.384E+00 0.462E+00   0.000E+00 0.000E+00 0.000E+00
   0.273E+03 0.125E+03 0.268E+03   -.274E+03 -.126E+03 -.269E+03   0.544E+00 0.347E+00 0.479E+00   0.000E+00 0.000E+00 0.000E+00
   -.378E+03 0.114E+02 -.652E+02   0.378E+03 -.115E+02 0.655E+02   -.774E+00 0.272E-01 -.243E+00   0.000E+00 0.000E+00 0.000E+00
   -.363E+03 -.138E+03 0.308E+02   0.363E+03 0.139E+03 -.308E+02   -.714E+00 -.378E+00 0.542E-02   0.000E+00 0.000E+00 0.000E+00
   -.249E+03 0.268E+03 -.171E+03   0.250E+03 -.269E+03 0.172E+03   -.523E+00 0.457E+00 -.417E+00   0.000E+00 0.000E+00 0.000E+00
   -.993E+02 0.342E+03 -.172E+03   0.994E+02 -.343E+03 0.172E+03   -.101E+00 0.687E+00 -.419E+00   0.000E+00 0.000E+00 0.000E+00
   -.176E+03 -.301E+03 0.201E+03   0.176E+03 0.302E+03 -.202E+03   -.378E+00 -.655E+00 0.286E+00   0.000E+00 0.000E+00 0.000E+00
   -.922E+01 -.307E+03 0.256E+03   0.914E+01 0.308E+03 -.257E+03   0.707E-01 -.670E+00 0.447E+00   0.000E+00 0.000E+00 0.000E+00
   0.206E+03 0.333E+03 -.657E+02   -.206E+03 -.334E+03 0.659E+02   0.384E+00 0.666E+00 -.251E+00   0.000E+00 0.000E+00 0.000E+00
   0.311E+03 0.250E+03 0.299E+02   -.312E+03 -.250E+03 -.299E+02   0.695E+00 0.413E+00 0.776E-02   0.000E+00 0.000E+00 0.000E+00
   0.268E+03 -.162E+03 0.256E+03   -.268E+03 0.162E+03 -.256E+03   0.531E+00 -.421E+00 0.446E+00   0.000E+00 0.000E+00 0.000E+00
   0.341E+03 -.171E+02 0.201E+03   -.342E+03 0.172E+02 -.201E+03   0.756E+00 -.296E-01 0.280E+00   0.000E+00 0.000E+00 0.000E+00
   -.341E+03 0.171E+02 -.201E+03   0.342E+03 -.171E+02 0.202E+03   -.759E+00 0.287E-01 -.284E+00   0.000E+00 0.000E+00 0.000E+00
   -.268E+03 0.162E+03 -.256E+03   0.268E+03 -.162E+03 0.256E+03   -.530E+00 0.422E+00 -.441E+00   0.000E+00 0.000E+00 0.000E+00
   -.311E+03 -.250E+03 -.299E+02   0.312E+03 0.250E+03 0.299E+02   -.696E+00 -.408E+00 -.103E-01   0.000E+00 0.000E+00 0.000E+00
   -.206E+03 -.333E+03 0.657E+02   0.206E+03 0.334E+03 -.659E+02   -.386E+00 -.665E+00 0.247E+00   0.000E+00 0.000E+00 0.000E+00
   0.919E+01 0.307E+03 -.256E+03   -.912E+01 -.308E+03 0.257E+03   -.733E-01 0.673E+00 -.451E+00   0.000E+00 0.000E+00 0.000E+00
   0.176E+03 0.301E+03 -.201E+03   -.176E+03 -.302E+03 0.202E+03   0.375E+00 0.651E+00 -.286E+00   0.000E+00 0.000E+00 0.000E+00
   0.993E+02 -.342E+03 0.172E+03   -.994E+02 0.343E+03 -.172E+03   0.102E+00 -.687E+00 0.420E+00   0.000E+00 0.000E+00 0.000E+00
   0.249E+03 -.268E+03 0.171E+03   -.250E+03 0.269E+03 -.172E+03   0.522E+00 -.455E+00 0.417E+00   0.000E+00 0.000E+00 0.000E+00
   0.363E+03 0.138E+03 -.308E+02   -.363E+03 -.139E+03 0.308E+02   0.717E+00 0.382E+00 -.693E-02   0.000E+00 0.000E+00 0.000E+00
   0.378E+03 -.114E+02 0.652E+02   -.378E+03 0.114E+02 -.655E+02   0.773E+00 -.234E-01 0.242E+00   0.000E+00 0.000E+00 0.000E+00
   -.273E+03 -.125E+03 -.268E+03   0.274E+03 0.126E+03 0.269E+03   -.543E+00 -.348E+00 -.480E+00   0.000E+00 0.000E+00 0.000E+00
   -.258E+03 -.243E+03 -.196E+03   0.259E+03 0.243E+03 0.196E+03   -.536E+00 -.387E+00 -.464E+00   0.000E+00 0.000E+00 0.000E+00
   -.145E+03 0.110E+03 -.350E+03   0.145E+03 -.111E+03 0.350E+03   -.178E+00 0.278E+00 -.734E+00   0.000E+00 0.000E+00 0.000E+00
   -.163E+02 0.180E+03 -.350E+03   0.164E+02 -.180E+03 0.351E+03   -.140E+00 0.304E+00 -.739E+00   0.000E+00 0.000E+00 0.000E+00
   -.783E+02 -.375E+03 -.443E+02   0.784E+02 0.376E+03 0.444E+02   -.382E-01 -.815E+00 -.480E-01   0.000E+00 0.000E+00 0.000E+00
   0.621E+02 -.379E+03 0.473E+01   -.621E+02 0.380E+03 -.470E+01   0.333E-02 -.803E+00 -.352E-01   0.000E+00 0.000E+00 0.000E+00
   0.250E+03 0.170E+03 -.268E+03   -.251E+03 -.170E+03 0.269E+03   0.588E+00 0.267E+00 -.477E+00   0.000E+00 0.000E+00 0.000E+00
   0.333E+03 0.921E+02 -.197E+03   -.333E+03 -.923E+02 0.197E+03   0.621E+00 0.247E+00 -.458E+00   0.000E+00 0.000E+00 0.000E+00
   0.302E+03 -.263E+03 0.446E+01   -.303E+03 0.263E+03 -.443E+01   0.688E+00 -.438E+00 -.299E-01   0.000E+00 0.000E+00 0.000E+00
   0.358E+03 -.150E+03 -.448E+02   -.359E+03 0.150E+03 0.448E+02   0.698E+00 -.398E+00 -.502E-01   0.000E+00 0.000E+00 0.000E+00
   -.149E+03 -.683E+02 -.357E+03   0.149E+03 0.685E+02 0.357E+03   -.188E+00 -.198E+00 -.759E+00   0.000E+00 0.000E+00 0.000E+00
   -.113E+03 -.324E+03 -.204E+03   0.113E+03 0.325E+03 0.205E+03   -.131E+00 -.641E+00 -.483E+00   0.000E+00 0.000E+00 0.000E+00
   0.136E+03 0.899E+02 -.357E+03   -.136E+03 -.899E+02 0.358E+03   0.265E+00 0.452E-01 -.760E+00   0.000E+00 0.000E+00 0.000E+00
   0.192E+03 -.333E+03 -.995E+02   -.193E+03 0.334E+03 0.998E+02   0.362E+00 -.645E+00 -.311E+00   0.000E+00 0.000E+00 0.000E+00
   0.330E+03 -.865E+02 -.205E+03   -.330E+03 0.867E+02 0.206E+03   0.614E+00 -.231E+00 -.490E+00   0.000E+00 0.000E+00 0.000E+00
   -.230E+02 -.144E+03 -.362E+03   0.231E+02 0.144E+03 0.363E+03   -.154E+00 -.225E+00 -.765E+00   0.000E+00 0.000E+00 0.000E+00
   -.303E+01 -.284E+03 -.282E+03   0.313E+01 0.285E+03 0.283E+03   -.970E-01 -.624E+00 -.506E+00   0.000E+00 0.000E+00 0.000E+00
   0.133E+03 -.582E+02 -.362E+03   -.134E+03 0.582E+02 0.363E+03   0.265E+00 0.395E-02 -.763E+00   0.000E+00 0.000E+00 0.000E+00
   0.164E+03 -.289E+03 -.229E+03   -.164E+03 0.290E+03 0.229E+03   0.354E+00 -.641E+00 -.346E+00   0.000E+00 0.000E+00 0.000E+00
   0.244E+03 -.153E+03 -.282E+03   -.245E+03 0.153E+03 0.283E+03   0.577E+00 -.247E+00 -.504E+00   0.000E+00 0.000E+00 0.000E+00
 -----------------------------------------------------------------------------------------------
   -.246E-02 0.466E-03 0.272E-02   0.341E-12 -.114E-11 0.171E-12   0.245E-02 -.476E-03 -.272E-02   0.000E+00 0.000E+00 0.000E+00
 
 
 POSITION                                       TOTAL-FORCE (eV/Angst)
 -----------------------------------------------------------------------------------
      9.08385      5.65258      4.45522        -0.002016     -0.003925      0.004395
      8.39663      4.46609      4.93611        -0.000236      0.004024     -0.003652
      8.13701      6.43602      3.68020         0.007415      0.002789      0.001550
      7.02559      4.51617      4.45770         0.000674      0.001364      0.002212
      6.86521      5.73389      3.68159        -0.000140      0.001293      0.001419
     10.02350      6.29478      5.26891        -0.010636      0.001263      0.006476
      8.67392      3.96652      6.21292        -0.000126     -0.009777      0.001192
      8.16473      7.83294      3.74830         0.001664      0.001736     -0.002640
      5.98297      4.06443      5.27376         0.002420      0.007523      0.001270
      5.66860      6.45531      3.75075         0.001729     -0.002905     -0.003048
     10.31114      5.77557      6.59498         0.001208     -0.000675      0.009860
      9.64963      4.63302      7.05812        -0.005521      0.005888     -0.002784
     10.05175      7.74579      5.33979        -0.004338     -0.000285     -0.004384
      9.13974      8.49974      4.59402        -0.000235      0.011037     -0.007965
      7.59111      3.49703      7.06048         0.000850      0.000732     -0.000995
      6.27105      3.54501      6.59978         0.002398      0.006860      0.001260
      6.92197      8.58208      3.81930        -0.001521     -0.003599     -0.002715
      5.69727      7.90612      3.82038         0.000536      0.004344      0.003213
      4.74050      4.81411      5.34553        -0.004739     -0.006120      0.003616
      4.58624      5.98677      4.59866        -0.004291     -0.009180     -0.002550
     10.51789      6.90575      7.48471        -0.003153     -0.004034     -0.000005
     10.35729      8.12350      6.70895         0.001843     -0.002802     -0.003025
      9.16920      4.57635      8.42821        -0.003101      0.002462     -0.000095
      7.89706      3.87404      8.42985         0.004974      0.007432     -0.003409
      8.49950      9.66121      5.18743         0.004140     -0.002283     -0.004761
      7.12893      9.71201      4.70863        -0.004290      0.002854      0.003857
      5.20637      3.97353      7.49077        -0.003230     -0.002265     -0.007326
      4.26010      4.75721      6.71548        -0.001492      0.005541     -0.002324
      4.63221      8.33416      4.71123         0.001320     -0.001215      0.002787
      3.94553      7.14755      5.19232         0.000230      0.002918     -0.006326
     10.05512      6.85127      8.80365        -0.002457     -0.002199      0.002022
      9.36806      5.66473      9.28418         0.000087      0.002985      0.003043
      9.74030      9.24133      7.28071         0.001830     -0.001025      0.000367
      8.79414     10.02507      6.50548         0.000219      0.003082      0.000428
      6.87164      4.28645      9.28760         0.000457     -0.000594     -0.008871
      5.50104      4.33750      8.80872        -0.004692     -0.000470      0.005324
      6.10345     10.12441      5.56618        -0.003424     -0.003694      0.003069
      4.83126      9.42237      5.56753         0.001377     -0.003534     -0.001773
      3.64303      5.87509      7.28707         0.001080      0.007381      0.002762
      3.48262      7.09290      6.51114         0.001561      0.005596      0.000043
      9.41430      8.01216      9.39739         0.004930      0.007043      0.000740
      9.25999      9.18486      8.65066         0.004704      0.003606     -0.005305
      8.30291      6.09287     10.17470         0.001558     -0.003542      0.004796
      7.07842      5.41677     10.17633         0.001719      0.007821      0.005598
      7.72933     10.45373      7.39624        -0.000597     -0.006751     -0.003107
      6.40929     10.50168      6.93552        -0.001905      0.000327     -0.003929
      4.86072      5.49900      9.40197         0.000191     -0.005745      0.006755
      3.94884      6.25312      8.65611         0.001506     -0.001830      0.002131
      4.35064      9.36589      6.93754         0.004393     -0.007462      0.001556
      3.68908      8.22330      7.40060         0.001580     -0.000808     -0.006448
      8.33170      7.54364     10.24486        -0.003604      0.001281      0.003404
      8.01736      9.93441      8.72214        -0.001170     -0.006404      0.002112
      5.83575      6.16620     10.24730        -0.002929     -0.009316      0.002189
      5.32622     10.03255      7.78284         0.001202      0.009696     -0.005806
      3.97701      7.70419      8.72666         0.006282     -0.004548     -0.007054
      7.13506      8.26513     10.31403         0.000316     -0.002282     -0.002038
      6.97458      9.48285      9.53802         0.003028     -0.001163     -0.001016
      5.86326      7.56308     10.31514        -0.003148     -0.004541      0.002333
      5.60360      9.53297      9.05942         0.002104     -0.003636      0.010081
      4.91653      8.34655      9.54013         0.001466     -0.000269      0.001493
 -----------------------------------------------------------------------------------
    total drift:                               -0.000006     -0.000010     -0.000002


--------------------------------------------------------------------------------------------------------



  FREE ENERGIE OF THE ION-ELECTRON SYSTEM (eV)
  ---------------------------------------------------
  free  energy   TOTEN  =      -531.09704618 eV

  energy  without entropy=     -531.09704618  energy(sigma->0) =     -531.09704618
 


--------------------------------------------------------------------------------------------------------


    POTLOK:  cpu time      0.4588: real time      0.4595


--------------------------------------------------------------------------------------------------------


     LOOP+:  cpu time   2511.6584: real time   2522.0247
    4ORBIT:  cpu time      0.0000: real time      0.0000

 total amount of memory used by VASP MPI-rank0   230629. kBytes
=======================================================================

   base      :      30000. kBytes
   nonl-proj :      75661. kBytes
   fftplans  :      52487. kBytes
   grid      :      66348. kBytes
   one-center:        184. kBytes
   wavefun   :       5949. kBytes
 
  
  
 General timing and accounting informations for this job:
 ========================================================
  
                  Total CPU time used (sec):     2518.040
                            User time (sec):     2501.099
                          System time (sec):       16.941
                         Elapsed time (sec):     2528.910
  
                   Maximum memory used (kb):      566172.
                   Average memory used (kb):          N/A
  
                          Minor page faults:      1190038
                          Major page faults:          285
                 Voluntary context switches:        31266
